TITLE     = "Surface"
VARIABLES = "X"
"cp"
ZONE T="Slice: Y=0.688333"
 STRANDID=2, SOLUTIONTIME=664.516175
 I=797, J=1, K=1, ZONETYPE=Ordered
 DATAPACKING=POINT
 DT=(SINGLE SINGLE )
 1.000000000E+00 2.058388591E-01
 9.959213138E-01 2.021908611E-01
 9.949748516E-01 2.013515234E-01
 9.908961654E-01 1.877142191E-01
 9.899497628E-01 1.845526397E-01
 9.858710766E-01 1.740832925E-01
 9.849246144E-01 1.716556400E-01
 9.808459282E-01 1.626182199E-01
 9.798995256E-01 1.605231613E-01
 9.758208394E-01 1.522225738E-01
 9.748743773E-01 1.502984613E-01
 9.707956910E-01 1.425114274E-01
 9.698492289E-01 1.407080293E-01
 9.657705426E-01 1.334707737E-01
 9.648241401E-01 1.317922026E-01
 9.607454538E-01 1.248655543E-01
 9.597989917E-01 1.232602000E-01
 9.557203054E-01 1.167246252E-01
 9.547738433E-01 1.152083725E-01
 9.506951571E-01 1.089571491E-01
 9.497487545E-01 1.075083613E-01
 9.456700683E-01 1.014693007E-01
 9.447236061E-01 1.000682637E-01
 9.406449199E-01 9.421749413E-02
 9.396985173E-01 9.286016971E-02
 9.356198311E-01 8.733492345E-02
 9.346733689E-01 8.605194092E-02
 9.305946827E-01 8.060066402E-02
 9.296482205E-01 7.933619618E-02
 9.255695343E-01 7.397311926E-02
 9.246231318E-01 7.272889465E-02
 9.205444455E-01 6.774258614E-02
 9.195979834E-01 6.658364087E-02
 9.155192971E-01 6.168095022E-02
 9.145728350E-01 6.054323539E-02
 9.104941487E-01 5.580548197E-02
 9.095477462E-01 5.470360443E-02
 9.054690599E-01 5.022258684E-02
 9.045225978E-01 4.918174818E-02
 9.004439116E-01 4.473019019E-02
 8.994975090E-01 4.369506985E-02
 8.954188228E-01 3.941087425E-02
 8.944723606E-01 3.841514140E-02
 8.903936744E-01 3.428898379E-02
 8.894472122E-01 3.332920372E-02
 8.853685260E-01 2.914889716E-02
 8.844221234E-01 2.817661501E-02
 8.803434372E-01 2.424890921E-02
 8.793969750E-01 2.333501726E-02
 8.753182888E-01 1.946814917E-02
 8.743718863E-01 1.856802031E-02
 8.702932000E-01 1.471701264E-02
 8.693467379E-01 1.382134389E-02
 8.652680516E-01 1.018482447E-02
 8.643215895E-01 9.339071810E-03
 8.602429032E-01 5.752762780E-03
 8.592965007E-01 4.917200189E-03
 8.552178144E-01 1.358435256E-03
 8.542713523E-01 5.294855800E-04
 8.501926661E-01 -2.792143729E-03
 8.492462039E-01 -3.565434366E-03
 8.451675177E-01 -7.089001127E-03
 8.442211151E-01 -7.909672335E-03
 8.401424289E-01 -1.131576486E-02
 8.391959667E-01 -1.210921165E-02
 8.351172805E-01 -1.535162423E-02
 8.341708779E-01 -1.610707864E-02
 8.300921917E-01 -1.951581798E-02
 8.291457295E-01 -2.031140029E-02
 8.250670433E-01 -2.340017259E-02
 8.241205812E-01 -2.412138134E-02
 8.200418949E-01 -2.721795253E-02
 8.190954924E-01 -2.793691121E-02
 8.150168061E-01 -3.096904419E-02
 8.140703440E-01 -3.167622164E-02
 8.099916577E-01 -3.453113884E-02
 8.090452552E-01 -3.519423306E-02
 8.049665689E-01 -3.820525482E-02
 8.040201068E-01 -3.890732303E-02
 7.999414206E-01 -4.202127829E-02
 7.989949584E-01 -4.274825752E-02
 7.949162722E-01 -4.569065943E-02
 7.939698696E-01 -4.637730122E-02
 7.898911834E-01 -4.917139560E-02
 7.889447212E-01 -4.982275516E-02
 7.848660350E-01 -5.271359161E-02
 7.839195728E-01 -5.338686332E-02
 7.798408866E-01 -5.624838918E-02
 7.788944840E-01 -5.691712350E-02
 7.748157978E-01 -5.982086062E-02
 7.738693357E-01 -6.049747393E-02
 7.697906494E-01 -6.335854530E-02
 7.688442469E-01 -6.402759254E-02
 7.647655606E-01 -6.659842283E-02
 7.638190985E-01 -6.719421595E-02
 7.597404122E-01 -7.004505396E-02
 7.587939501E-01 -7.071130723E-02
 7.547152638E-01 -7.362464070E-02
 7.537688613E-01 -7.430363446E-02
 7.496901751E-01 -7.704494148E-02
 7.487437129E-01 -7.768362015E-02
 7.446650267E-01 -8.040179312E-02
 7.437185645E-01 -8.103601635E-02
 7.396398783E-01 -8.383831382E-02
 7.386934757E-01 -8.448921889E-02
 7.346147895E-01 -8.714713901E-02
 7.336683273E-01 -8.776898682E-02
 7.295896411E-01 -9.052290022E-02
 7.286432385E-01 -9.116262197E-02
 7.245645523E-01 -9.380818903E-02
 7.236180902E-01 -9.442791343E-02
 7.195394039E-01 -9.705633670E-02
 7.185929418E-01 -9.766772389E-02
 7.145142555E-01 -1.003824249E-01
 7.135678530E-01 -1.010161638E-01
 7.094891667E-01 -1.038357764E-01
 7.085427046E-01 -1.044959053E-01
 7.044640183E-01 -1.073081940E-01
 7.035176158E-01 -1.079587489E-01
 6.994389296E-01 -1.107134596E-01
 6.984924674E-01 -1.113578901E-01
 6.944137812E-01 -1.140845418E-01
 6.934673190E-01 -1.147185043E-01
 6.893886328E-01 -1.173153147E-01
 6.884422302E-01 -1.179210618E-01
 6.843635440E-01 -1.206949875E-01
 6.834170818E-01 -1.213437170E-01
 6.793383956E-01 -1.240084022E-01
 6.783919334E-01 -1.246253327E-01
 6.743132472E-01 -1.274845153E-01
 6.733668447E-01 -1.281540841E-01
 6.692881584E-01 -1.310324222E-01
 6.683416963E-01 -1.317014545E-01
 6.642630100E-01 -1.344727725E-01
 6.633166075E-01 -1.351161897E-01
 6.592379212E-01 -1.379376352E-01
 6.582914591E-01 -1.385992765E-01
 6.542127728E-01 -1.414998323E-01
 6.532663107E-01 -1.421721131E-01
 6.491876245E-01 -1.448523551E-01
 6.482412219E-01 -1.454791278E-01
 6.441625357E-01 -1.484125257E-01
 6.432160735E-01 -1.490983516E-01
 6.391373873E-01 -1.519263089E-01
 6.381909251E-01 -1.525806785E-01
 6.341122389E-01 -1.554284692E-01
 6.331658363E-01 -1.560957581E-01
 6.290871501E-01 -1.589679420E-01
 6.281406879E-01 -1.596368402E-01
 6.240620017E-01 -1.625713706E-01
 6.231155992E-01 -1.632523984E-01
 6.190369129E-01 -1.662003100E-01
 6.180904508E-01 -1.668917835E-01
 6.140117645E-01 -1.699234098E-01
 6.130653024E-01 -1.706254929E-01
 6.089866161E-01 -1.736468375E-01
 6.080402136E-01 -1.743516028E-01
 6.039615273E-01 -1.772832423E-01
 6.030150652E-01 -1.779717505E-01
 5.989363790E-01 -1.809575707E-01
 5.979899764E-01 -1.816460788E-01
 5.939112902E-01 -1.845931262E-01
 5.929648280E-01 -1.852813661E-01
 5.888861418E-01 -1.884631217E-01
 5.879396796E-01 -1.892092079E-01
 5.838609934E-01 -1.923831999E-01
 5.829145908E-01 -1.931155473E-01
 5.788359046E-01 -1.961879134E-01
 5.778894424E-01 -1.969049126E-01
 5.738107562E-01 -2.000486553E-01
 5.728642941E-01 -2.007862329E-01
 5.687856078E-01 -2.039459944E-01
 5.678392053E-01 -2.046741545E-01
 5.637605190E-01 -2.078515887E-01
 5.628140569E-01 -2.085912526E-01
 5.587353706E-01 -2.119867057E-01
 5.577889681E-01 -2.127834409E-01
 5.537102818E-01 -2.160159796E-01
 5.527638197E-01 -2.167633772E-01
 5.486851335E-01 -2.199500948E-01
 5.477386713E-01 -2.206915021E-01
 5.436599851E-01 -2.239937484E-01
 5.427135825E-01 -2.247678488E-01
 5.386348963E-01 -2.281865925E-01
 5.376884341E-01 -2.289798260E-01
 5.336097479E-01 -2.324331403E-01
 5.326633453E-01 -2.332310528E-01
 5.285846591E-01 -2.366931438E-01
 5.276381969E-01 -2.375023961E-01
 5.235595107E-01 -2.409288585E-01
 5.226130486E-01 -2.417323887E-01
 5.185343623E-01 -2.452972978E-01
 5.175879598E-01 -2.461192310E-01
 5.135092735E-01 -2.496434599E-01
 5.125628114E-01 -2.504634261E-01
 5.084841251E-01 -2.538454235E-01
 5.075376630E-01 -2.546392679E-01
 5.034589767E-01 -2.583445609E-01
 5.025125742E-01 -2.592054009E-01
 4.984338582E-01 -2.629882097E-01
 4.974874258E-01 -2.638629079E-01
 4.934087396E-01 -2.676109672E-01
 4.924623072E-01 -2.684846222E-01
 4.883836210E-01 -2.723018825E-01
 4.874371886E-01 -2.731969655E-01
 4.833585024E-01 -2.769772708E-01
 4.824120700E-01 -2.778547108E-01
 4.783333540E-01 -2.815649807E-01
 4.773869216E-01 -2.824216187E-01
 4.733082354E-01 -2.863574028E-01
 4.723618031E-01 -2.872756720E-01
 4.682831168E-01 -2.910283804E-01
 4.673366845E-01 -2.919072807E-01
 4.632579982E-01 -2.958257794E-01
 4.623115659E-01 -2.967378199E-01
 4.582328498E-01 -3.008463681E-01
 4.572864175E-01 -3.017975390E-01
 4.532077312E-01 -3.058629334E-01
 4.522612989E-01 -3.068036735E-01
 4.481826127E-01 -3.112131059E-01
 4.472361803E-01 -3.122444749E-01
 4.431574941E-01 -3.162655830E-01
 4.422110617E-01 -3.172077835E-01
 4.381323755E-01 -3.215426207E-01
 4.371859431E-01 -3.225472569E-01
 4.331072271E-01 -3.268144429E-01
 4.321607947E-01 -3.278009295E-01
 4.280821085E-01 -3.321214616E-01
 4.271356761E-01 -3.331235349E-01
 4.230569899E-01 -3.375821710E-01
 4.221105576E-01 -3.386266530E-01
 4.180318713E-01 -3.429472446E-01
 4.170854390E-01 -3.439592421E-01
 4.130067229E-01 -3.485246599E-01
 4.120602906E-01 -3.495843112E-01
 4.079816043E-01 -3.543552160E-01
 4.070351720E-01 -3.554594815E-01
 4.029564857E-01 -3.601682484E-01
 4.020100534E-01 -3.612567782E-01
 3.979313672E-01 -3.658044636E-01
 3.969849348E-01 -3.668609560E-01
 3.929062188E-01 -3.717430532E-01
 3.919597864E-01 -3.728874624E-01
 3.878811002E-01 -3.774392605E-01
 3.869346678E-01 -3.785028160E-01
 3.828559816E-01 -3.830612898E-01
 3.819095492E-01 -3.841208220E-01
 3.778308630E-01 -3.894601166E-01
 3.768844306E-01 -3.907023668E-01
 3.728057146E-01 -3.958885968E-01
 3.718592823E-01 -3.970890045E-01
 3.677805960E-01 -4.019608200E-01
 3.668341637E-01 -4.030891061E-01
 3.627554774E-01 -4.078132212E-01
 3.618090451E-01 -4.089095294E-01
 3.577303588E-01 -4.146887362E-01
 3.567839265E-01 -4.160325825E-01
 3.527052402E-01 -4.215417206E-01
 3.517588079E-01 -4.228293002E-01
 3.476800919E-01 -4.283909202E-01
 3.467336595E-01 -4.296912849E-01
 3.426549733E-01 -4.352486134E-01
 3.417085409E-01 -4.365425110E-01
 3.376298547E-01 -4.415511787E-01
 3.366834223E-01 -4.427135587E-01
 3.326047361E-01 -4.478242993E-01
 3.316583037E-01 -4.490134418E-01
 3.275795877E-01 -4.551636577E-01
 3.266331553E-01 -4.565964937E-01
 3.225544691E-01 -4.626164436E-01
 3.216080368E-01 -4.640153646E-01
 3.175293505E-01 -4.699671865E-01
 3.165829182E-01 -4.713501930E-01
 3.125042319E-01 -4.773495495E-01
 3.115577996E-01 -4.787436426E-01
 3.074790835E-01 -4.848766923E-01
 3.065326512E-01 -4.863019288E-01
 3.024539649E-01 -4.923325181E-01
 3.015075326E-01 -4.937342405E-01
 2.974288464E-01 -4.996900856E-01
 2.964824140E-01 -5.010746121E-01
 2.924037278E-01 -5.069599748E-01
 2.914572954E-01 -5.083282590E-01
 2.873785794E-01 -5.144454837E-01
 2.864321470E-01 -5.158680081E-01
 2.823534608E-01 -5.222815275E-01
 2.814070284E-01 -5.237732530E-01
 2.773283422E-01 -5.299590826E-01
 2.763819098E-01 -5.313981771E-01
 2.723032236E-01 -5.372827649E-01
 2.713567913E-01 -5.386520028E-01
 2.672781050E-01 -5.421309471E-01
 2.663316727E-01 -5.429424047E-01
 2.622529566E-01 -5.515754223E-01
 2.613065243E-01 -5.535827875E-01
 2.572278380E-01 -5.670472980E-01
 2.562814057E-01 -5.701732039E-01
 2.522027194E-01 -5.756787658E-01
 2.512562871E-01 -5.769550800E-01
 2.471775860E-01 -5.829963088E-01
 2.462311536E-01 -5.843918324E-01
 2.421524674E-01 -5.888288021E-01
 2.412060350E-01 -5.898538232E-01
 2.371273339E-01 -5.986707807E-01
 2.361809015E-01 -6.007229090E-01
 2.321022153E-01 -6.135398746E-01
 2.311557829E-01 -6.165255904E-01
 2.270770818E-01 -6.219974756E-01
 2.261306494E-01 -6.232752204E-01
 2.220519632E-01 -6.322052479E-01
 2.211055309E-01 -6.342856884E-01
 2.170268297E-01 -6.448280215E-01
 2.160803974E-01 -6.472743750E-01
 2.120017111E-01 -6.517102718E-01
 2.110552788E-01 -6.527307034E-01
 2.069765776E-01 -6.615768075E-01
 2.060301453E-01 -6.636306643E-01
 2.019514591E-01 -6.756320000E-01
 2.010050267E-01 -6.784304380E-01
 1.969263256E-01 -6.877738237E-01
 1.959798932E-01 -6.899520159E-01
 1.919012070E-01 -7.000144720E-01
 1.909547746E-01 -7.023444176E-01
 1.868760735E-01 -7.117944956E-01
 1.859296411E-01 -7.139835358E-01
 1.818509549E-01 -7.235778570E-01
 1.809045225E-01 -7.258183956E-01
 1.768258363E-01 -7.360596061E-01
 1.758794039E-01 -7.384433150E-01
 1.718007028E-01 -7.518341541E-01
 1.708542705E-01 -7.549380064E-01
 1.667755842E-01 -7.630805373E-01
 1.658291519E-01 -7.649766803E-01
 1.617504507E-01 -7.744562626E-01
 1.608040184E-01 -7.766623497E-01
 1.567253321E-01 -7.935082316E-01
 1.557788998E-01 -7.974166870E-01
 1.517001987E-01 -8.099647760E-01
 1.507537663E-01 -8.128885627E-01
 1.466750801E-01 -8.227486610E-01
 1.457286477E-01 -8.250350356E-01
 1.416499466E-01 -8.386085629E-01
 1.407035142E-01 -8.417623043E-01
 1.366248280E-01 -8.566138744E-01
 1.356783956E-01 -8.600687981E-01
 1.315996945E-01 -8.745760322E-01
 1.306532621E-01 -8.779465556E-01
 1.265745759E-01 -8.914429545E-01
 1.256281435E-01 -8.945798278E-01
 1.215494499E-01 -9.083344340E-01
 1.206030175E-01 -9.115321040E-01
 1.165243238E-01 -9.296482801E-01
 1.155778915E-01 -9.338617921E-01
 1.114991978E-01 -9.525667429E-01
 1.105527654E-01 -9.569126964E-01
 1.064740717E-01 -9.742695093E-01
 1.055276394E-01 -9.783056974E-01
 1.014489457E-01 -9.967862964E-01
 1.005025133E-01 -1.001079798E+00
 9.642381966E-02 -1.019363284E+00
 9.547738731E-02 -1.023611307E+00
 9.139869362E-02 -1.041141629E+00
 9.045226127E-02 -1.045219660E+00
 8.637356758E-02 -1.070659637E+00
 8.542713523E-02 -1.076573968E+00
 8.134844154E-02 -1.098621607E+00
 8.040200919E-02 -1.103745222E+00
 7.632331550E-02 -1.125952005E+00
 7.537688315E-02 -1.131113410E+00
 7.129818946E-02 -1.159940958E+00
 7.035175711E-02 -1.166643620E+00
 6.627306342E-02 -1.196961761E+00
 6.532663107E-02 -1.204011202E+00
 6.124794483E-02 -1.234011650E+00
 6.030150875E-02 -1.240987301E+00
 5.622281879E-02 -1.274123549E+00
 5.527638271E-02 -1.281829596E+00
 5.119769275E-02 -1.317881107E+00
 5.025125667E-02 -1.326265574E+00
 4.617256671E-02 -1.368143082E+00
 4.522613063E-02 -1.377882838E+00
 4.114744067E-02 -1.422698736E+00
 4.020100459E-02 -1.433123589E+00
 3.612231463E-02 -1.475807190E+00
 3.517587855E-02 -1.485739946E+00
 3.109719045E-02 -1.535533428E+00
 3.015075438E-02 -1.547122359E+00
 2.607206441E-02 -1.612351179E+00
 2.512562834E-02 -1.627532601E+00
 2.104693837E-02 -1.685338855E+00
 2.010050230E-02 -1.698807359E+00
 1.602181233E-02 -1.748244882E+00
 1.507537719E-02 -1.759784102E+00
 1.099668723E-02 -1.801429510E+00
 1.005025115E-02 -1.811189532E+00
 5.971561186E-03 -1.407277346E+00
 5.025125574E-03 -1.313531399E+00
 9.464358445E-04 -2.266646624E-01
 0.000000000E+00 2.587640099E-02
 9.464358445E-04 1.927007735E-01
 5.025125574E-03 9.098799825E-01
 5.971561186E-03 9.221450090E-01
 1.005025115E-02 9.741578698E-01
 1.099668723E-02 9.583420157E-01
 1.507537719E-02 8.898463845E-01
 1.602181233E-02 8.720086217E-01
 2.010050230E-02 7.950009704E-01
 2.104693837E-02 7.792546153E-01
 2.512562834E-02 7.113215327E-01
 2.607206441E-02 6.982671022E-01
 3.015075438E-02 6.419768333E-01
 3.109719045E-02 6.302339435E-01
 3.517587855E-02 5.796114206E-01
 3.612231463E-02 5.691810846E-01
 4.020100459E-02 5.242256522E-01
 4.114744067E-02 5.153164864E-01
 4.522613063E-02 4.769252539E-01
 4.617256671E-02 4.691073895E-01
 5.025125667E-02 4.354259074E-01
 5.119769275E-02 4.283404946E-01
 5.527638271E-02 3.978196383E-01
 5.622281879E-02 3.914709687E-01
 6.030150875E-02 3.641279936E-01
 6.124794483E-02 3.585401773E-01
 6.532663107E-02 3.344766796E-01
 6.627306342E-02 3.295724988E-01
 7.035175711E-02 3.084582090E-01
 7.129818946E-02 3.038439155E-01
 7.537688315E-02 2.839747071E-01
 7.632331550E-02 2.794485688E-01
 8.040200919E-02 2.599406540E-01
 8.134844154E-02 2.558621764E-01
 8.542713523E-02 2.382852286E-01
 8.637356758E-02 2.349753082E-01
 9.045226127E-02 2.207403183E-01
 9.139869362E-02 2.170034945E-01
 9.547738731E-02 2.009289712E-01
 9.642381966E-02 1.976790428E-01
 1.005025133E-01 1.836706251E-01
 1.014489457E-01 1.807408482E-01
 1.055276394E-01 1.681103259E-01
 1.064740717E-01 1.654134095E-01
 1.105527654E-01 1.538306475E-01
 1.114991978E-01 1.515155137E-01
 1.155778915E-01 1.415363699E-01
 1.165243238E-01 1.394392699E-01
 1.206030175E-01 1.304375231E-01
 1.215494499E-01 1.280219555E-01
 1.256281435E-01 1.176268756E-01
 1.265745759E-01 1.153469607E-01
 1.306532621E-01 1.055232435E-01
 1.315996945E-01 1.035844162E-01
 1.356783956E-01 9.524428099E-02
 1.366248280E-01 9.352776408E-02
 1.407035142E-01 8.615152538E-02
 1.416499466E-01 8.452806622E-02
 1.457286477E-01 7.753276825E-02
 1.466750801E-01 7.548224926E-02
 1.507537663E-01 6.664138287E-02
 1.517001987E-01 6.505806744E-02
 1.557788998E-01 5.828542262E-02
 1.567253321E-01 5.770292878E-02
 1.608040184E-01 5.518299341E-02
 1.617504507E-01 5.347677693E-02
 1.658291519E-01 4.613627866E-02
 1.667755842E-01 4.429640993E-02
 1.708542705E-01 3.639626876E-02
 1.718007028E-01 3.566495702E-02
 1.758794039E-01 3.248632327E-02
 1.768258363E-01 3.116711974E-02
 1.809045225E-01 2.550305612E-02
 1.818509549E-01 2.430159412E-02
 1.859296411E-01 1.918361336E-02
 1.868760735E-01 1.815884374E-02
 1.909547746E-01 1.372610778E-02
 1.919012070E-01 1.275452133E-02
 1.959798932E-01 8.532745764E-03
 1.969263256E-01 7.495042868E-03
 2.010050267E-01 3.066976788E-03
 2.019514591E-01 2.956450684E-03
 2.060301453E-01 2.546803094E-03
 2.069765776E-01 1.658688416E-03
 2.110552788E-01 -2.178544644E-03
 2.120017111E-01 -3.970917314E-03
 2.160803974E-01 -1.175505575E-02
 2.170268297E-01 -1.205593906E-02
 2.211055309E-01 -1.335914526E-02
 2.220519632E-01 -1.408408489E-02
 2.261306494E-01 -1.716944389E-02
 2.270770818E-01 -1.849595085E-02
 2.311557829E-01 -2.417612635E-02
 2.321022153E-01 -2.345715463E-02
 2.361809015E-01 -2.031207271E-02
 2.371273339E-01 -2.074886300E-02
 2.412060350E-01 -2.260869928E-02
 2.421524674E-01 -2.405607514E-02
 2.462311536E-01 -3.032725677E-02
 2.471775860E-01 -3.125311062E-02
 2.512562871E-01 -3.528850526E-02
 2.522027194E-01 -3.627148271E-02
 2.562814057E-01 -4.052544758E-02
 2.572278380E-01 -3.911463171E-02
 2.613065243E-01 -3.302794322E-02
 2.622529566E-01 -3.316818923E-02
 2.663316727E-01 -3.375839815E-02
 2.672781050E-01 -3.532466665E-02
 2.713567913E-01 -4.205477610E-02
 2.723032236E-01 -4.275859147E-02
 2.763819098E-01 -4.577836022E-02
 2.773283422E-01 -4.631472379E-02
 2.814070284E-01 -4.861519858E-02
 2.823534608E-01 -4.901809245E-02
 2.864321470E-01 -5.074400082E-02
 2.873785794E-01 -5.118437484E-02
 2.914572954E-01 -5.307516083E-02
 2.924037278E-01 -5.354685336E-02
 2.964824140E-01 -5.557591468E-02
 2.974288464E-01 -5.597131699E-02
 3.015075326E-01 -5.767147988E-02
 3.024539649E-01 -5.800029635E-02
 3.065326512E-01 -5.941464007E-02
 3.074790835E-01 -5.968378112E-02
 3.115577996E-01 -6.084322929E-02
 3.125042319E-01 -6.108842790E-02
 3.165829182E-01 -6.214491278E-02
 3.175293505E-01 -6.234968081E-02
 3.216080368E-01 -6.323203444E-02
 3.225544691E-01 -6.339401752E-02
 3.266331553E-01 -6.409233809E-02
 3.275795877E-01 -6.423074007E-02
 3.316583037E-01 -6.481933594E-02
 3.326047361E-01 -6.524550170E-02
 3.366834223E-01 -6.708179414E-02
 3.376298547E-01 -6.742522866E-02
 3.417085409E-01 -6.892481446E-02
 3.426549733E-01 -6.901872158E-02
 3.467336595E-01 -6.942079216E-02
 3.476800919E-01 -6.947091967E-02
 3.517588079E-01 -6.966757774E-02
 3.527052402E-01 -6.971936673E-02
 3.567839265E-01 -6.990665942E-02
 3.577303588E-01 -6.988447160E-02
 3.618090451E-01 -6.976736337E-02
 3.627554774E-01 -7.011447102E-02
 3.668341637E-01 -7.160523534E-02
 3.677805960E-01 -7.174912095E-02
 3.718592823E-01 -7.237955183E-02
 3.728057146E-01 -7.236000150E-02
 3.768844306E-01 -7.229409367E-02
 3.778308630E-01 -7.230212539E-02
 3.819095492E-01 -7.233680040E-02
 3.828559816E-01 -7.262516767E-02
 3.869346678E-01 -7.387180626E-02
 3.878811002E-01 -7.397617400E-02
 3.919597864E-01 -7.442916930E-02
 3.929062188E-01 -7.444091886E-02
 3.969849348E-01 -7.446662337E-02
 3.979313672E-01 -7.466752082E-02
 4.020100534E-01 -7.551604509E-02
 4.029564857E-01 -7.547100633E-02
 4.070351720E-01 -7.528679073E-02
 4.079816043E-01 -7.521378249E-02
 4.120602906E-01 -7.491389662E-02
 4.130067229E-01 -7.502397895E-02
 4.170854390E-01 -7.550396025E-02
 4.180318713E-01 -7.551120222E-02
 4.221105576E-01 -7.554086298E-02
 4.230569899E-01 -7.548724860E-02
 4.271356761E-01 -7.523220032E-02
 4.280821085E-01 -7.529469579E-02
 4.321607947E-01 -7.555798441E-02
 4.331072271E-01 -7.551357895E-02
 4.371859431E-01 -7.533167303E-02
 4.381323755E-01 -7.534284890E-02
 4.422110617E-01 -7.540076226E-02
 4.431574941E-01 -7.545655221E-02
 4.472361803E-01 -7.568980008E-02
 4.481826127E-01 -7.553692162E-02
 4.522612989E-01 -7.486368716E-02
 4.532077312E-01 -7.487216592E-02
 4.572864175E-01 -7.491078973E-02
 4.582328498E-01 -7.481559366E-02
 4.623115659E-01 -7.441322505E-02
 4.632579982E-01 -7.444865257E-02
 4.673366845E-01 -7.460466772E-02
 4.682831168E-01 -7.457681000E-02
 4.723618031E-01 -7.444970310E-02
 4.733082354E-01 -7.439838350E-02
 4.773869216E-01 -7.416450232E-02
 4.783333540E-01 -7.416114211E-02
 4.824120700E-01 -7.415680587E-02
 4.833585024E-01 -7.415299863E-02
 4.874371886E-01 -7.414457202E-02
 4.883836210E-01 -7.399824262E-02
 4.924623072E-01 -7.336171716E-02
 4.934087396E-01 -7.331798971E-02
 4.974874258E-01 -7.311599702E-02
 4.984338582E-01 -7.298142463E-02
 5.025125742E-01 -7.241092622E-02
 5.034589767E-01 -7.233785838E-02
 5.075376630E-01 -7.203144580E-02
 5.084841251E-01 -7.205270976E-02
 5.125628114E-01 -7.213222235E-02
 5.135092735E-01 -7.202992588E-02
 5.175879598E-01 -7.158379257E-02
 5.185343623E-01 -7.150039822E-02
 5.226130486E-01 -7.115720958E-02
 5.235595107E-01 -7.108816504E-02
 5.276381969E-01 -7.078509033E-02
 5.285846591E-01 -7.065516710E-02
 5.326633453E-01 -7.008643448E-02
 5.336097479E-01 -6.998308748E-02
 5.376884341E-01 -6.954514235E-02
 5.386348963E-01 -6.945786625E-02
 5.427135825E-01 -6.908930838E-02
 5.436599851E-01 -6.898870319E-02
 5.477386713E-01 -6.854782999E-02
 5.486851335E-01 -6.845568120E-02
 5.527638197E-01 -6.805460155E-02
 5.537102818E-01 -6.795065850E-02
 5.577889681E-01 -6.751555949E-02
 5.587353706E-01 -6.735066324E-02
 5.628140569E-01 -6.663402915E-02
 5.637605190E-01 -6.652195752E-02
 5.678392053E-01 -6.603200734E-02
 5.687856078E-01 -6.596466899E-02
 5.728642941E-01 -6.569191068E-02
 5.738107562E-01 -6.558828056E-02
 5.778894424E-01 -6.513646245E-02
 5.788359046E-01 -6.497406214E-02
 5.829145908E-01 -6.426706165E-02
 5.838609934E-01 -6.413723528E-02
 5.879396796E-01 -6.359348446E-02
 5.888861418E-01 -6.343486905E-02
 5.929648280E-01 -6.274291128E-02
 5.939112902E-01 -6.260801852E-02
 5.979899764E-01 -6.202328205E-02
 5.989363790E-01 -6.194150820E-02
 6.030150652E-01 -6.160323322E-02
 6.039615273E-01 -6.151850149E-02
 6.080402136E-01 -6.114694849E-02
 6.089866161E-01 -6.091609225E-02
 6.130653024E-01 -5.991484597E-02
 6.140117645E-01 -5.974646658E-02
 6.180904508E-01 -5.903035030E-02
 6.190369129E-01 -5.888382345E-02
 6.231155992E-01 -5.824508518E-02
 6.240620017E-01 -5.809703842E-02
 6.281406879E-01 -5.746395141E-02
 6.290871501E-01 -5.730519444E-02
 6.331658363E-01 -5.662660301E-02
 6.341122389E-01 -5.644576997E-02
 6.381909251E-01 -5.565867946E-02
 6.391373873E-01 -5.553476140E-02
 6.432160735E-01 -5.500877276E-02
 6.441625357E-01 -5.480792746E-02
 6.482412219E-01 -5.394585431E-02
 6.491876245E-01 -5.382448062E-02
 6.532663107E-01 -5.329210684E-02
 6.542127728E-01 -5.307494104E-02
 6.582914591E-01 -5.214624107E-02
 6.592379212E-01 -5.197307467E-02
 6.633166075E-01 -5.122200027E-02
 6.642630100E-01 -5.103594065E-02
 6.683416963E-01 -5.023931712E-02
 6.692881584E-01 -5.001712590E-02
 6.733668447E-01 -4.906766489E-02
 6.743132472E-01 -4.883869365E-02
 6.783919334E-01 -4.784407467E-02
 6.793383956E-01 -4.767715186E-02
 6.834170818E-01 -4.696618393E-02
 6.843635440E-01 -4.676688090E-02
 6.884422302E-01 -4.590581730E-02
 6.893886328E-01 -4.572835937E-02
 6.934673190E-01 -4.496501386E-02
 6.944137812E-01 -4.475954920E-02
 6.984924674E-01 -4.387856647E-02
 6.994389296E-01 -4.363495484E-02
 7.035176158E-01 -4.258301482E-02
 7.044640183E-01 -4.234576225E-02
 7.085427046E-01 -4.133168980E-02
 7.094891667E-01 -4.112992808E-02
 7.135678530E-01 -4.025762156E-02
 7.145142555E-01 -4.001449421E-02
 7.185929418E-01 -3.896773979E-02
 7.195394039E-01 -3.877763823E-02
 7.236180902E-01 -3.796587512E-02
 7.245645523E-01 -3.774939105E-02
 7.286432385E-01 -3.680932149E-02
 7.295896411E-01 -3.654359654E-02
 7.336683273E-01 -3.540470451E-02
 7.346147895E-01 -3.516660631E-02
 7.386934757E-01 -3.413767740E-02
 7.396398783E-01 -3.387291357E-02
 7.437185645E-01 -3.273603693E-02
 7.446650267E-01 -3.246282041E-02
 7.487437129E-01 -3.129011765E-02
 7.496901751E-01 -3.100705147E-02
 7.537688613E-01 -2.978747152E-02
 7.547152638E-01 -2.948005684E-02
 7.587939501E-01 -2.815895714E-02
 7.597404122E-01 -2.782928571E-02
 7.638190985E-01 -2.640409954E-02
 7.647655606E-01 -2.620662190E-02
 7.688442469E-01 -2.536768652E-02
 7.697906494E-01 -2.505727112E-02
 7.738693357E-01 -2.371600270E-02
 7.748157978E-01 -2.339509875E-02
 7.788944840E-01 -2.201213688E-02
 7.798408866E-01 -2.171453275E-02
 7.839195728E-01 -2.042964846E-02
 7.848660350E-01 -2.010589465E-02
 7.889447212E-01 -1.871383004E-02
 7.898911834E-01 -1.839410700E-02
 7.939698696E-01 -1.701979712E-02
 7.949162722E-01 -1.665442623E-02
 7.989949584E-01 -1.507589314E-02
 7.999414206E-01 -1.469581109E-02
 8.040201068E-01 -1.305578649E-02
 8.049665689E-01 -1.270698477E-02
 8.090452552E-01 -1.120494585E-02
 8.099916577E-01 -1.088393293E-02
 8.140703440E-01 -9.508787654E-03
 8.150168061E-01 -9.132773615E-03
 8.190954924E-01 -7.510764059E-03
 8.200418949E-01 -7.121083327E-03
 8.241205812E-01 -5.449144170E-03
 8.250670433E-01 -5.065406673E-03
 8.291457295E-01 -3.409546101E-03
 8.300921917E-01 -2.919593826E-03
 8.341708779E-01 -8.015753701E-04
 8.351172805E-01 -3.701532551E-04
 8.391959667E-01 1.488142298E-03
 8.401424289E-01 1.965974225E-03
 8.442211151E-01 4.025218543E-03
 8.451675177E-01 4.526081961E-03
 8.492462039E-01 6.686833687E-03
 8.501926661E-01 7.130565122E-03
 8.542713523E-01 9.041199461E-03
 8.552178144E-01 9.548168629E-03
 8.592965007E-01 1.173584536E-02
 8.602429032E-01 1.224227995E-02
 8.643215895E-01 1.442697085E-02
 8.652680516E-01 1.495886315E-02
 8.693467379E-01 1.725051925E-02
 8.702932000E-01 1.784799434E-02
 8.743718863E-01 2.042427659E-02
 8.753182888E-01 2.101179026E-02
 8.793969750E-01 2.354543656E-02
 8.803434372E-01 2.413880825E-02
 8.844221234E-01 2.669956163E-02
 8.853685260E-01 2.735800855E-02
 8.894472122E-01 3.019731864E-02
 8.903936744E-01 3.083795495E-02
 8.944723606E-01 3.360049799E-02
 8.954188228E-01 3.428284824E-02
 8.994975090E-01 3.722672909E-02
 9.004439116E-01 3.795723990E-02
 9.045225978E-01 4.110856727E-02
 9.054690599E-01 4.183769599E-02
 9.095477462E-01 4.498284310E-02
 9.104941487E-01 4.580733925E-02
 9.145728350E-01 4.936983436E-02
 9.155192971E-01 5.022639036E-02
 9.195979834E-01 5.391766131E-02
 9.205444455E-01 5.476135015E-02
 9.246231318E-01 5.840513110E-02
 9.255695343E-01 5.937831476E-02
 9.296482205E-01 6.357298046E-02
 9.305946827E-01 6.457617879E-02
 9.346733689E-01 6.890259683E-02
 9.356198311E-01 6.994814426E-02
 9.396985173E-01 7.446054369E-02
 9.406449199E-01 7.557296008E-02
 9.447236061E-01 8.037275821E-02
 9.456700683E-01 8.157586306E-02
 9.497487545E-01 8.676481992E-02
 9.506951571E-01 8.804757148E-02
 9.547738433E-01 9.357813001E-02
 9.557203054E-01 9.496857971E-02
 9.597989917E-01 1.009694114E-01
 9.607454538E-01 1.024887115E-01
 9.648241401E-01 1.090392023E-01
 9.657705426E-01 1.106906384E-01
 9.698492289E-01 1.178175956E-01
 9.707956910E-01 1.196677089E-01
 9.748743773E-01 1.276384592E-01
 9.758208394E-01 1.296822727E-01
 9.798995256E-01 1.384969950E-01
 9.808459282E-01 1.408523321E-01
 9.849246144E-01 1.510081589E-01
 9.858710766E-01 1.538193077E-01
 9.899497628E-01 1.659417003E-01
 9.908961654E-01 1.695502996E-01
 9.949748516E-01 1.850879043E-01
 9.959213138E-01 1.890035421E-01
 1.000000000E+00 2.058388591E-01
