TITLE     = "Surface"
VARIABLES = "X"
"cp"
ZONE T="Slice: Y=0.631667"
 STRANDID=2, SOLUTIONTIME=664.516175
 I=797, J=1, K=1, ZONETYPE=Ordered
 DATAPACKING=POINT
 DT=(SINGLE SINGLE )
 1.000000000E+00 2.112119198E-01
 9.956364632E-01 2.074876875E-01
 9.949748516E-01 2.069196850E-01
 9.906113744E-01 1.925310642E-01
 9.899497628E-01 1.903485209E-01
 9.855862260E-01 1.792856604E-01
 9.849246144E-01 1.776095629E-01
 9.805611372E-01 1.680296063E-01
 9.798995256E-01 1.665765792E-01
 9.755359888E-01 1.577763855E-01
 9.748743773E-01 1.564422846E-01
 9.705108404E-01 1.481651217E-01
 9.698492289E-01 1.469092369E-01
 9.654857516E-01 1.392003447E-01
 9.648241401E-01 1.380309463E-01
 9.604606032E-01 1.306380332E-01
 9.597989917E-01 1.295172125E-01
 9.554354548E-01 1.225230172E-01
 9.547738433E-01 1.214616001E-01
 9.504103661E-01 1.147701666E-01
 9.497487545E-01 1.137550399E-01
 9.453852177E-01 1.072574928E-01
 9.447236061E-01 1.062709317E-01
 9.403601289E-01 9.997633100E-02
 9.396985173E-01 9.902177751E-02
 9.353349805E-01 9.304005653E-02
 9.346733689E-01 9.213205427E-02
 9.303098321E-01 8.624984324E-02
 9.296482205E-01 8.535686880E-02
 9.252847433E-01 7.952944934E-02
 9.246231318E-01 7.864421606E-02
 9.202595949E-01 7.321260124E-02
 9.195979834E-01 7.238895446E-02
 9.152344465E-01 6.703515351E-02
 9.145728350E-01 6.622217596E-02
 9.102093577E-01 6.103844196E-02
 9.095477462E-01 6.025119126E-02
 9.051842093E-01 5.532546714E-02
 9.045225978E-01 5.457825959E-02
 9.001591206E-01 4.968149588E-02
 8.994975090E-01 4.893676564E-02
 8.951339722E-01 4.420313239E-02
 8.944723606E-01 4.348523170E-02
 8.901088238E-01 3.891634196E-02
 8.894472122E-01 3.822102398E-02
 8.850837350E-01 3.358418867E-02
 8.844221234E-01 3.288107365E-02
 8.800585866E-01 2.851018496E-02
 8.793969750E-01 2.784489654E-02
 8.750334978E-01 2.352645248E-02
 8.743718863E-01 2.287155017E-02
 8.700083494E-01 1.857652701E-02
 8.693467379E-01 1.792272367E-02
 8.649832010E-01 1.384451054E-02
 8.643215895E-01 1.322538964E-02
 8.599581122E-01 9.196616709E-03
 8.592965007E-01 8.583074436E-03
 8.549329638E-01 4.572350532E-03
 8.542713523E-01 3.964241128E-03
 8.499078155E-01 2.160769945E-04
 8.492462039E-01 -3.555305884E-04
 8.448827267E-01 -4.335997626E-03
 8.442211151E-01 -4.939826671E-03
 8.398575783E-01 -8.785665035E-03
 8.391959667E-01 -9.371540509E-03
 8.348324895E-01 -1.305765379E-02
 8.341708779E-01 -1.361695211E-02
 8.298073411E-01 -1.747551747E-02
 8.291457295E-01 -1.806319319E-02
 8.247821927E-01 -2.159190550E-02
 8.241205812E-01 -2.212669514E-02
 8.197571039E-01 -2.563570440E-02
 8.190954924E-01 -2.617071383E-02
 8.147319555E-01 -2.964027599E-02
 8.140703440E-01 -3.016829304E-02
 8.097068667E-01 -3.341427818E-02
 8.090452552E-01 -3.390888125E-02
 8.046817183E-01 -3.736439720E-02
 8.040201068E-01 -3.789093345E-02
 7.996565700E-01 -4.143453389E-02
 7.989949584E-01 -4.197163135E-02
 7.946314812E-01 -4.535287246E-02
 7.939698696E-01 -4.586823657E-02
 7.896063328E-01 -4.906571656E-02
 7.889447212E-01 -4.955078289E-02
 7.845811844E-01 -5.287229642E-02
 7.839195728E-01 -5.337925255E-02
 7.795560956E-01 -5.666668713E-02
 7.788944840E-01 -5.716445297E-02
 7.745309472E-01 -6.048411503E-02
 7.738693357E-01 -6.099190935E-02
 7.695058584E-01 -6.428795308E-02
 7.688442469E-01 -6.478682160E-02
 7.644807100E-01 -6.772605330E-02
 7.638190985E-01 -6.817533076E-02
 7.594555616E-01 -7.146234810E-02
 7.587939501E-01 -7.196227461E-02
 7.544304729E-01 -7.527630776E-02
 7.537688613E-01 -7.577926666E-02
 7.494053245E-01 -7.894121855E-02
 7.487437129E-01 -7.942354679E-02
 7.443801761E-01 -8.253130317E-02
 7.437185645E-01 -8.300290257E-02
 7.393550873E-01 -8.620885760E-02
 7.386934757E-01 -8.669932932E-02
 7.343299389E-01 -8.977189660E-02
 7.336683273E-01 -9.023692459E-02
 7.293048501E-01 -9.337121993E-02
 7.286432385E-01 -9.384996444E-02
 7.242797017E-01 -9.691205621E-02
 7.236180902E-01 -9.737719595E-02
 7.192545533E-01 -1.003764942E-01
 7.185929418E-01 -1.008323506E-01
 7.142294645E-01 -1.039687917E-01
 7.135678530E-01 -1.044468060E-01
 7.092043161E-01 -1.076707318E-01
 7.085427046E-01 -1.081583053E-01
 7.041792274E-01 -1.113465577E-01
 7.035176158E-01 -1.118352562E-01
 6.991540790E-01 -1.150029451E-01
 6.984924674E-01 -1.154841185E-01
 6.941289306E-01 -1.185864732E-01
 6.934673190E-01 -1.190580130E-01
 6.891038418E-01 -1.220497042E-01
 6.884422302E-01 -1.225061566E-01
 6.840786934E-01 -1.256825328E-01
 6.834170818E-01 -1.261629760E-01
 6.790535450E-01 -1.291874498E-01
 6.783919334E-01 -1.296507716E-01
 6.740284562E-01 -1.329353005E-01
 6.733668447E-01 -1.334336698E-01
 6.690033078E-01 -1.366855502E-01
 6.683416963E-01 -1.371790320E-01
 6.639782190E-01 -1.403361261E-01
 6.633166075E-01 -1.408198178E-01
 6.589530706E-01 -1.440570951E-01
 6.582914591E-01 -1.445459574E-01
 6.539279222E-01 -1.478138119E-01
 6.532663107E-01 -1.483122259E-01
 6.489028335E-01 -1.513878107E-01
 6.482412219E-01 -1.518566310E-01
 6.438776851E-01 -1.551964432E-01
 6.432160735E-01 -1.557011604E-01
 6.388525367E-01 -1.588915586E-01
 6.381909251E-01 -1.593801677E-01
 6.338274479E-01 -1.626441330E-01
 6.331658363E-01 -1.631391197E-01
 6.288022995E-01 -1.663848609E-01
 6.281406879E-01 -1.668775678E-01
 6.237772107E-01 -1.701991707E-01
 6.231155992E-01 -1.707069278E-01
 6.187520623E-01 -1.740781218E-01
 6.180904508E-01 -1.745879948E-01
 6.137269139E-01 -1.779836714E-01
 6.130653024E-01 -1.785004437E-01
 6.087018251E-01 -1.819387078E-01
 6.080402136E-01 -1.824625880E-01
 6.036766768E-01 -1.858038455E-01
 6.030150652E-01 -1.863086224E-01
 5.986515880E-01 -1.896430552E-01
 5.979899764E-01 -1.901528388E-01
 5.936264396E-01 -1.935157776E-01
 5.929648280E-01 -1.940276325E-01
 5.886012912E-01 -1.976314038E-01
 5.879396796E-01 -1.981761307E-01
 5.835762024E-01 -2.017105073E-01
 5.829145908E-01 -2.022504061E-01
 5.785510540E-01 -2.057435066E-01
 5.778894424E-01 -2.062749565E-01
 5.735259056E-01 -2.098379284E-01
 5.728642941E-01 -2.103766054E-01
 5.685008168E-01 -2.138914317E-01
 5.678392053E-01 -2.144282609E-01
 5.634756684E-01 -2.180108130E-01
 5.628140569E-01 -2.185586393E-01
 5.584505796E-01 -2.224083245E-01
 5.577889681E-01 -2.229888588E-01
 5.534254313E-01 -2.265935242E-01
 5.527638197E-01 -2.271429449E-01
 5.484002829E-01 -2.307273149E-01
 5.477386713E-01 -2.312755883E-01
 5.433751941E-01 -2.350142896E-01
 5.427135825E-01 -2.355781943E-01
 5.383500457E-01 -2.394004315E-01
 5.376884341E-01 -2.399815172E-01
 5.333249569E-01 -2.438202947E-01
 5.326633453E-01 -2.444069088E-01
 5.282998085E-01 -2.483214885E-01
 5.276381969E-01 -2.489157319E-01
 5.232746601E-01 -2.527796626E-01
 5.226130486E-01 -2.533637583E-01
 5.182495713E-01 -2.573094368E-01
 5.175879598E-01 -2.579112053E-01
 5.132244229E-01 -2.618559003E-01
 5.125628114E-01 -2.624593079E-01
 5.081992745E-01 -2.662893534E-01
 5.075376630E-01 -2.668666244E-01
 5.031741858E-01 -2.710060179E-01
 5.025125742E-01 -2.716348469E-01
 4.981490672E-01 -2.758229077E-01
 4.974874258E-01 -2.764618099E-01
 4.931239486E-01 -2.806604803E-01
 4.924623072E-01 -2.813002765E-01
 4.880988300E-01 -2.855997086E-01
 4.874371886E-01 -2.862485349E-01
 4.830737114E-01 -2.904595733E-01
 4.824120700E-01 -2.910992801E-01
 4.780485630E-01 -2.952064574E-01
 4.773869216E-01 -2.958339751E-01
 4.730234444E-01 -3.002341390E-01
 4.723618031E-01 -3.009043038E-01
 4.679983258E-01 -3.051229417E-01
 4.673366845E-01 -3.057597876E-01
 4.629732072E-01 -3.101346195E-01
 4.623115659E-01 -3.107989728E-01
 4.579480588E-01 -3.153421879E-01
 4.572864175E-01 -3.160342574E-01
 4.529229403E-01 -3.205327988E-01
 4.522612989E-01 -3.212189376E-01
 4.478978217E-01 -3.261668682E-01
 4.472361803E-01 -3.269164860E-01
 4.428727031E-01 -3.314164579E-01
 4.422110617E-01 -3.320968449E-01
 4.378475845E-01 -3.369004130E-01
 4.371859431E-01 -3.376308382E-01
 4.328224361E-01 -3.423373997E-01
 4.321607947E-01 -3.430557549E-01
 4.277973175E-01 -3.478379250E-01
 4.271356761E-01 -3.485661447E-01
 4.227721989E-01 -3.535731435E-01
 4.221105576E-01 -3.543318510E-01
 4.177470803E-01 -3.591510952E-01
 4.170854390E-01 -3.598787189E-01
 4.127219319E-01 -3.649387360E-01
 4.120602906E-01 -3.657085896E-01
 4.076968133E-01 -3.709684610E-01
 4.070351720E-01 -3.717694283E-01
 4.026716948E-01 -3.769424558E-01
 4.020100534E-01 -3.777310252E-01
 3.976465762E-01 -3.827750385E-01
 3.969849348E-01 -3.835423291E-01
 3.926214278E-01 -3.890191615E-01
 3.919597864E-01 -3.898483813E-01
 3.875963092E-01 -3.949047625E-01
 3.869346678E-01 -3.956692815E-01
 3.825711906E-01 -4.007272124E-01
 3.819095492E-01 -4.014967084E-01
 3.775460720E-01 -4.074075222E-01
 3.768844306E-01 -4.083044231E-01
 3.725209236E-01 -4.140090942E-01
 3.718592823E-01 -4.148778915E-01
 3.674958050E-01 -4.202422202E-01
 3.668341637E-01 -4.210595787E-01
 3.624706864E-01 -4.262761772E-01
 3.618090451E-01 -4.270692766E-01
 3.574455678E-01 -4.334548414E-01
 3.567839265E-01 -4.344249368E-01
 3.524204493E-01 -4.405471385E-01
 3.517588079E-01 -4.414753020E-01
 3.473953009E-01 -4.476606250E-01
 3.467336595E-01 -4.485957623E-01
 3.423701823E-01 -4.547370672E-01
 3.417085409E-01 -4.556689560E-01
 3.373450637E-01 -4.611845613E-01
 3.366834223E-01 -4.620232284E-01
 3.323199451E-01 -4.676823318E-01
 3.316583037E-01 -4.685423970E-01
 3.272947967E-01 -4.753410518E-01
 3.266331553E-01 -4.763717055E-01
 3.222696781E-01 -4.830081463E-01
 3.216080368E-01 -4.840163291E-01
 3.172445595E-01 -4.905761778E-01
 3.165829182E-01 -4.915727973E-01
 3.122194409E-01 -4.981838763E-01
 3.115577996E-01 -4.991881847E-01
 3.071942925E-01 -5.059436560E-01
 3.065326512E-01 -5.069699287E-01
 3.021691740E-01 -5.136151314E-01
 3.015075326E-01 -5.146244764E-01
 2.971440554E-01 -5.211887360E-01
 2.964824140E-01 -5.221857429E-01
 2.921189368E-01 -5.286735892E-01
 2.914572954E-01 -5.296589732E-01
 2.870937884E-01 -5.364000797E-01
 2.864321470E-01 -5.374237299E-01
 2.820686698E-01 -5.444864631E-01
 2.814070284E-01 -5.455586314E-01
 2.770435512E-01 -5.523773432E-01
 2.763819098E-01 -5.534124374E-01
 2.720184326E-01 -5.599069595E-01
 2.713567913E-01 -5.608928204E-01
 2.669933140E-01 -5.647907853E-01
 2.663316727E-01 -5.653827190E-01
 2.619681656E-01 -5.748588443E-01
 2.613065243E-01 -5.762960315E-01
 2.569430470E-01 -5.909718871E-01
 2.562814057E-01 -5.932006240E-01
 2.519179285E-01 -5.992589593E-01
 2.512562871E-01 -6.001793742E-01
 2.468927950E-01 -6.067751646E-01
 2.462311536E-01 -6.077814698E-01
 2.418676764E-01 -6.126662493E-01
 2.412060350E-01 -6.134116054E-01
 2.368425429E-01 -6.231025457E-01
 2.361809015E-01 -6.245740056E-01
 2.318174243E-01 -6.385978460E-01
 2.311557829E-01 -6.407231688E-01
 2.267922908E-01 -6.467900276E-01
 2.261306494E-01 -6.477088332E-01
 2.217671722E-01 -6.575292945E-01
 2.211055309E-01 -6.590176821E-01
 2.167420387E-01 -6.705334187E-01
 2.160803974E-01 -6.722809076E-01
 2.117169201E-01 -6.771308780E-01
 2.110552788E-01 -6.778734922E-01
 2.066917866E-01 -6.875729561E-01
 2.060301453E-01 -6.890485287E-01
 2.016666681E-01 -7.022048831E-01
 2.010050267E-01 -7.041975260E-01
 1.966415346E-01 -7.144721746E-01
 1.959798932E-01 -7.160287499E-01
 1.916164160E-01 -7.269862294E-01
 1.909547746E-01 -7.286508083E-01
 1.865912825E-01 -7.389779687E-01
 1.859296411E-01 -7.405517101E-01
 1.815661639E-01 -7.511288524E-01
 1.809045225E-01 -7.527307272E-01
 1.765410453E-01 -7.639690042E-01
 1.758794039E-01 -7.656704783E-01
 1.715159118E-01 -7.802451849E-01
 1.708542705E-01 -7.824621201E-01
 1.664907932E-01 -7.914430499E-01
 1.658291519E-01 -7.928074598E-01
 1.614656597E-01 -8.032077551E-01
 1.608040184E-01 -8.047822118E-01
 1.564405411E-01 -8.231264353E-01
 1.557788998E-01 -8.259153366E-01
 1.514154077E-01 -8.397064209E-01
 1.507537663E-01 -8.417968750E-01
 1.463902891E-01 -8.525604010E-01
 1.457286477E-01 -8.541953564E-01
 1.413651556E-01 -8.690723777E-01
 1.407035142E-01 -8.713338375E-01
 1.363400370E-01 -8.875808120E-01
 1.356783956E-01 -8.900423646E-01
 1.313149035E-01 -9.059296846E-01
 1.306532621E-01 -9.083443284E-01
 1.262897849E-01 -9.231228232E-01
 1.256281435E-01 -9.253644943E-01
 1.212646514E-01 -9.404683113E-01
 1.206030175E-01 -9.427631497E-01
 1.162395254E-01 -9.625837207E-01
 1.155778915E-01 -9.655898213E-01
 1.112143993E-01 -9.860679507E-01
 1.105527654E-01 -9.891766310E-01
 1.061892733E-01 -1.008194089E+00
 1.055276394E-01 -1.011080861E+00
 1.011641473E-01 -1.031336904E+00
 1.005025133E-01 -1.034412980E+00
 9.613902122E-02 -1.054484248E+00
 9.547738731E-02 -1.057532072E+00
 9.111389518E-02 -1.076828957E+00
 9.045226127E-02 -1.079758525E+00
 8.608876914E-02 -1.107649326E+00
 8.542713523E-02 -1.111883283E+00
 8.106364310E-02 -1.136112213E+00
 8.040200919E-02 -1.139792085E+00
 7.603851706E-02 -1.164241552E+00
 7.537688315E-02 -1.167955518E+00
 7.101339102E-02 -1.199677348E+00
 7.035175711E-02 -1.204493523E+00
 6.598826498E-02 -1.237859011E+00
 6.532663107E-02 -1.242924690E+00
 6.096314639E-02 -1.276009798E+00
 6.030150875E-02 -1.281034350E+00
 5.593802035E-02 -1.317650914E+00
 5.527638271E-02 -1.323212266E+00
 5.091289431E-02 -1.363122821E+00
 5.025125667E-02 -1.369184613E+00
 4.588776827E-02 -1.415569544E+00
 4.522613063E-02 -1.422615528E+00
 4.086264223E-02 -1.472403765E+00
 4.020100459E-02 -1.479967952E+00
 3.583751619E-02 -1.527682304E+00
 3.517587855E-02 -1.534933925E+00
 3.081239015E-02 -1.590725780E+00
 3.015075438E-02 -1.599206090E+00
 2.578726411E-02 -1.672293067E+00
 2.512562834E-02 -1.683402300E+00
 2.076213807E-02 -1.749287248E+00
 2.010050230E-02 -1.759310961E+00
 1.573701389E-02 -1.817266345E+00
 1.507537719E-02 -1.826097250E+00
 1.071188785E-02 -1.877771139E+00
 1.005025115E-02 -1.885668278E+00
 5.686762277E-03 -1.452494860E+00
 5.025125574E-03 -1.386810422E+00
 6.616365863E-04 -1.994622201E-01
 0.000000000E+00 -1.923681796E-02
 6.616365863E-04 1.018151343E-01
 5.025125574E-03 8.985366821E-01
 5.686762277E-03 9.092411995E-01
 1.005025115E-02 9.790437222E-01
 1.071188785E-02 9.689126015E-01
 1.507537719E-02 9.017358422E-01
 1.573701389E-02 8.896197081E-01
 2.010050230E-02 8.095710874E-01
 2.076213807E-02 7.987561226E-01
 2.512562834E-02 7.273535728E-01
 2.578726411E-02 7.183138132E-01
 3.015075438E-02 6.586617231E-01
 3.081239015E-02 6.505045295E-01
 3.517587855E-02 5.966838598E-01
 3.583751619E-02 5.894191861E-01
 4.020100459E-02 5.414916873E-01
 4.086264223E-02 5.352664590E-01
 4.522613063E-02 4.942089021E-01
 4.588776827E-02 4.887331128E-01
 5.025125667E-02 4.526186585E-01
 5.091289431E-02 4.476509392E-01
 5.527638271E-02 4.148849249E-01
 5.593802035E-02 4.104265869E-01
 6.030150875E-02 3.810274899E-01
 6.096314639E-02 3.770979643E-01
 6.532663107E-02 3.511860073E-01
 6.598826498E-02 3.477294743E-01
 7.035175711E-02 3.249372244E-01
 7.101339102E-02 3.216812909E-01
 7.537688315E-02 3.002162874E-01
 7.603851706E-02 2.970252931E-01
 8.040200919E-02 2.759979367E-01
 8.106364310E-02 2.731194496E-01
 8.542713523E-02 2.541501522E-01
 8.608876914E-02 2.518041730E-01
 9.045226127E-02 2.363402545E-01
 9.111389518E-02 2.337034196E-01
 9.547738731E-02 2.163154632E-01
 9.613902122E-02 2.140123099E-01
 1.005025133E-01 1.988351494E-01
 1.011641473E-01 1.967596859E-01
 1.055276394E-01 1.830846369E-01
 1.061892733E-01 1.811739802E-01
 1.105527654E-01 1.685699970E-01
 1.112143993E-01 1.669138372E-01
 1.155778915E-01 1.560152620E-01
 1.162395254E-01 1.545250565E-01
 1.206030175E-01 1.446822584E-01
 1.212646514E-01 1.429604739E-01
 1.256281435E-01 1.316315085E-01
 1.262897849E-01 1.300182939E-01
 1.306532621E-01 1.193703637E-01
 1.313149035E-01 1.179822236E-01
 1.356783956E-01 1.088537648E-01
 1.363400370E-01 1.076307297E-01
 1.407035142E-01 9.954788536E-02
 1.413651556E-01 9.837824851E-02
 1.457286477E-01 9.070040286E-02
 1.463902891E-01 8.925100416E-02
 1.507537663E-01 7.969128340E-02
 1.514154077E-01 7.855848968E-02
 1.557788998E-01 7.107383758E-02
 1.564405411E-01 7.062846422E-02
 1.608040184E-01 6.773325801E-02
 1.614656597E-01 6.652328372E-02
 1.658291519E-01 5.853054300E-02
 1.664907932E-01 5.722221360E-02
 1.708542705E-01 4.860121012E-02
 1.715159118E-01 4.805812240E-02
 1.758794039E-01 4.452175647E-02
 1.765410453E-01 4.358132929E-02
 1.809045225E-01 3.735454008E-02
 1.815661639E-01 3.649707139E-02
 1.859296411E-01 3.081811778E-02
 1.865912825E-01 3.007349186E-02
 1.909547746E-01 2.519915812E-02
 1.916164160E-01 2.449546382E-02
 1.959798932E-01 1.988511160E-02
 1.966415346E-01 1.914096437E-02
 2.010050267E-01 1.421455387E-02
 2.016666681E-01 1.411449164E-02
 2.060301453E-01 1.342701539E-02
 2.066917866E-01 1.277840603E-02
 2.110552788E-01 8.540146053E-03
 2.117169201E-01 7.271656301E-03
 2.160803974E-01 -1.045232057E-03
 2.167420387E-01 -1.277706935E-03
 2.211055309E-01 -2.809649566E-03
 2.217671722E-01 -3.335007466E-03
 2.261306494E-01 -6.813299842E-03
 2.267922908E-01 -7.752401289E-03
 2.311557829E-01 -1.396268047E-02
 2.318174243E-01 -1.348288544E-02
 2.361809015E-01 -1.033789199E-02
 2.368425429E-01 -1.066555548E-02
 2.412060350E-01 -1.281808876E-02
 2.418676764E-01 -1.384766866E-02
 2.462311536E-01 -2.060139179E-02
 2.468927950E-01 -2.126699686E-02
 2.512562871E-01 -2.560881898E-02
 2.519179285E-01 -2.630843967E-02
 2.562814057E-01 -3.091796488E-02
 2.569430470E-01 -2.995959856E-02
 2.613065243E-01 -2.363154851E-02
 2.619681656E-01 -2.374905162E-02
 2.663316727E-01 -2.452220209E-02
 2.669933140E-01 -2.562514693E-02
 2.713567913E-01 -3.290152922E-02
 2.720184326E-01 -3.340666369E-02
 2.763819098E-01 -3.673852980E-02
 2.770435512E-01 -3.712713346E-02
 2.814070284E-01 -3.968864679E-02
 2.820686698E-01 -3.998395056E-02
 2.864321470E-01 -4.193023965E-02
 2.870937884E-01 -4.225172475E-02
 2.914572954E-01 -4.436682537E-02
 2.921189368E-01 -4.470955953E-02
 2.964824140E-01 -4.696355760E-02
 2.971440554E-01 -4.725298658E-02
 3.015075326E-01 -4.915626720E-02
 3.021691740E-01 -4.939917102E-02
 3.065326512E-01 -5.099482834E-02
 3.071942925E-01 -5.119612068E-02
 3.115577996E-01 -5.251558870E-02
 3.122194409E-01 -5.269966647E-02
 3.165829182E-01 -5.390685052E-02
 3.172445595E-01 -5.406266451E-02
 3.216080368E-01 -5.508276075E-02
 3.222696781E-01 -5.520846695E-02
 3.266331553E-01 -5.603001639E-02
 3.272947967E-01 -5.613803864E-02
 3.316583037E-01 -5.685089156E-02
 3.323199451E-01 -5.716092139E-02
 3.366834223E-01 -5.919244140E-02
 3.373450637E-01 -5.944322795E-02
 3.417085409E-01 -6.107740104E-02
 3.423701823E-01 -6.115109101E-02
 3.467336595E-01 -6.163894758E-02
 3.473953009E-01 -6.168125570E-02
 3.517588079E-01 -6.197422370E-02
 3.524204493E-01 -6.201750040E-02
 3.567839265E-01 -6.232139468E-02
 3.574455678E-01 -6.231720001E-02
 3.618090451E-01 -6.229330599E-02
 3.624706864E-01 -6.254360080E-02
 3.668341637E-01 -6.419081986E-02
 3.674958050E-01 -6.430117041E-02
 3.718592823E-01 -6.501306593E-02
 3.725209236E-01 -6.500945240E-02
 3.768844306E-01 -6.496813148E-02
 3.775460720E-01 -6.498204172E-02
 3.819095492E-01 -6.507177651E-02
 3.825711906E-01 -6.528232992E-02
 3.869346678E-01 -6.665785611E-02
 3.875963092E-01 -6.673551351E-02
 3.919597864E-01 -6.724689901E-02
 3.926214278E-01 -6.725942343E-02
 3.969849348E-01 -6.735865772E-02
 3.976465762E-01 -6.750474870E-02
 4.020100534E-01 -6.847533584E-02
 4.026716948E-01 -6.845305860E-02
 4.070351720E-01 -6.828895956E-02
 4.076968133E-01 -6.824543327E-02
 4.120602906E-01 -6.794607639E-02
 4.127219319E-01 -6.803055853E-02
 4.170854390E-01 -6.857682019E-02
 4.177470803E-01 -6.858581305E-02
 4.221105576E-01 -6.864649802E-02
 4.227721989E-01 -6.861229241E-02
 4.271356761E-01 -6.840263307E-02
 4.277973175E-01 -6.845106930E-02
 4.321607947E-01 -6.876891851E-02
 4.328224361E-01 -6.874413788E-02
 4.371859431E-01 -6.856647879E-02
 4.378475845E-01 -6.857956201E-02
 4.422110617E-01 -6.866091490E-02
 4.428727031E-01 -6.870274991E-02
 4.472361803E-01 -6.897969544E-02
 4.478978217E-01 -6.887686998E-02
 4.522612989E-01 -6.820887327E-02
 4.529229403E-01 -6.821860373E-02
 4.572864175E-01 -6.827763468E-02
 4.579480588E-01 -6.821510196E-02
 4.623115659E-01 -6.779484451E-02
 4.629732072E-01 -6.782379001E-02
 4.673366845E-01 -6.800943613E-02
 4.679983258E-01 -6.799136847E-02
 4.723618031E-01 -6.788114458E-02
 4.730234444E-01 -6.784760952E-02
 4.773869216E-01 -6.762728095E-02
 4.780485630E-01 -6.762833148E-02
 4.824120700E-01 -6.762352586E-02
 4.830737114E-01 -6.762385368E-02
 4.874371886E-01 -6.762198359E-02
 4.880988300E-01 -6.752046198E-02
 4.924623072E-01 -6.685953587E-02
 4.931239486E-01 -6.682994962E-02
 4.974874258E-01 -6.664111465E-02
 4.981490672E-01 -6.655057520E-02
 5.025125742E-01 -6.594059616E-02
 5.031741858E-01 -6.589218229E-02
 5.075376630E-01 -6.556797773E-02
 5.081992745E-01 -6.558089703E-02
 5.125628114E-01 -6.568209082E-02
 5.132244229E-01 -6.561350077E-02
 5.175879598E-01 -6.515198946E-02
 5.182495713E-01 -6.509513408E-02
 5.226130486E-01 -6.471221894E-02
 5.232746601E-01 -6.466341019E-02
 5.276381969E-01 -6.434521079E-02
 5.282998085E-01 -6.425512582E-02
 5.326633453E-01 -6.366807222E-02
 5.333249569E-01 -6.359720975E-02
 5.376884341E-01 -6.312076747E-02
 5.383500457E-01 -6.306080520E-02
 5.427135825E-01 -6.266137958E-02
 5.433751941E-01 -6.258934736E-02
 5.477386713E-01 -6.212639064E-02
 5.484002829E-01 -6.206263602E-02
 5.527638197E-01 -6.163670123E-02
 5.534254313E-01 -6.156500801E-02
 5.577889681E-01 -6.108423695E-02
 5.584505796E-01 -6.096627563E-02
 5.628140569E-01 -6.019965187E-02
 5.634756684E-01 -6.012153253E-02
 5.678392053E-01 -5.960555002E-02
 5.685008168E-01 -5.955890939E-02
 5.728642941E-01 -5.923866108E-02
 5.735259056E-01 -5.916311592E-02
 5.778894424E-01 -5.867126212E-02
 5.785510540E-01 -5.855796114E-02
 5.829145908E-01 -5.781676620E-02
 5.835762024E-01 -5.772593617E-02
 5.879396796E-01 -5.711490661E-02
 5.886012912E-01 -5.700117722E-02
 5.929648280E-01 -5.626010150E-02
 5.936264396E-01 -5.616590381E-02
 5.979899764E-01 -5.554393679E-02
 5.986515880E-01 -5.548509955E-02
 6.030150652E-01 -5.508888513E-02
 6.036766768E-01 -5.502516031E-02
 6.080402136E-01 -5.461476371E-02
 6.087018251E-01 -5.445387214E-02
 6.130653024E-01 -5.339517072E-02
 6.137269139E-01 -5.327601731E-02
 6.180904508E-01 -5.248520151E-02
 6.187520623E-01 -5.237996206E-02
 6.231155992E-01 -5.169411004E-02
 6.237772107E-01 -5.158982798E-02
 6.281406879E-01 -5.089683458E-02
 6.288022995E-01 -5.078289658E-02
 6.331658363E-01 -5.003049597E-02
 6.338274479E-01 -4.990129173E-02
 6.381909251E-01 -4.905688018E-02
 6.388525367E-01 -4.896890745E-02
 6.432160735E-01 -4.837930202E-02
 6.438776851E-01 -4.823480174E-02
 6.482412219E-01 -4.728974402E-02
 6.489028335E-01 -4.720163718E-02
 6.532663107E-01 -4.662531242E-02
 6.539279222E-01 -4.647278786E-02
 6.582914591E-01 -4.545842856E-02
 6.589530706E-01 -4.533356801E-02
 6.633166075E-01 -4.452063888E-02
 6.639782190E-01 -4.438997433E-02
 6.683416963E-01 -4.352061078E-02
 6.690033078E-01 -4.336155578E-02
 6.733668447E-01 -4.231321812E-02
 6.740284562E-01 -4.215003178E-02
 6.783919334E-01 -4.108211771E-02
 6.790535450E-01 -4.096376896E-02
 6.834170818E-01 -4.017296061E-02
 6.840786934E-01 -4.002955183E-02
 6.884422302E-01 -3.909277543E-02
 6.891038418E-01 -3.896702453E-02
 6.934673190E-01 -3.813460469E-02
 6.941289306E-01 -3.798706457E-02
 6.984924674E-01 -3.701616824E-02
 6.991540790E-01 -3.684318438E-02
 7.035176158E-01 -3.570513427E-02
 7.041792274E-01 -3.553761169E-02
 7.085427046E-01 -3.442370892E-02
 7.092043161E-01 -3.427773342E-02
 7.135678530E-01 -3.332277387E-02
 7.142294645E-01 -3.315181285E-02
 7.185929418E-01 -3.202285618E-02
 7.192545533E-01 -3.188538179E-02
 7.236180902E-01 -3.097954206E-02
 7.242797017E-01 -3.082451783E-02
 7.286432385E-01 -2.980949730E-02
 7.293048501E-01 -2.962189913E-02
 7.336683273E-01 -2.837665565E-02
 7.343299389E-01 -2.820607275E-02
 7.386934757E-01 -2.709230222E-02
 7.393550873E-01 -2.690631337E-02
 7.437185645E-01 -2.567253262E-02
 7.443801761E-01 -2.547718398E-02
 7.487437129E-01 -2.419049107E-02
 7.494053245E-01 -2.399151027E-02
 7.537688613E-01 -2.268013917E-02
 7.544304729E-01 -2.246165648E-02
 7.587939501E-01 -2.102096193E-02
 7.594555616E-01 -2.078899927E-02
 7.638190985E-01 -1.926300488E-02
 7.644807100E-01 -1.912293583E-02
 7.688442469E-01 -1.819035970E-02
 7.695058584E-01 -1.796959899E-02
 7.738693357E-01 -1.652468741E-02
 7.745309472E-01 -1.629948057E-02
 7.788944840E-01 -1.480554603E-02
 7.795560956E-01 -1.459354255E-02
 7.839195728E-01 -1.320505794E-02
 7.845811844E-01 -1.297888905E-02
 7.889447212E-01 -1.148201339E-02
 7.896063328E-01 -1.125482377E-02
 7.939698696E-01 -9.760923684E-03
 7.946314812E-01 -9.505511262E-03
 7.989949584E-01 -7.821603678E-03
 7.996565700E-01 -7.553453092E-03
 8.040201068E-01 -5.788885057E-03
 8.046817183E-01 -5.545535590E-03
 8.090452552E-01 -3.937524743E-03
 8.097068667E-01 -3.711390309E-03
 8.140703440E-01 -2.216529567E-03
 8.147319555E-01 -1.953181345E-03
 8.190954924E-01 -2.168937935E-04
 8.197571039E-01 5.500239422E-05
 8.241205812E-01 1.854678267E-03
 8.247821927E-01 2.124109073E-03
 8.291457295E-01 3.893314162E-03
 8.298073411E-01 4.235037137E-03
 8.341708779E-01 6.492237560E-03
 8.348324895E-01 6.793325301E-03
 8.391959667E-01 8.774878457E-03
 8.398575783E-01 9.107763879E-03
 8.442211151E-01 1.130813919E-02
 8.448827267E-01 1.165739447E-02
 8.492462039E-01 1.395392511E-02
 8.499078155E-01 1.426166482E-02
 8.542713523E-01 1.630074158E-02
 8.549329638E-01 1.665401645E-02
 8.592965007E-01 1.897624508E-02
 8.599581122E-01 1.932729594E-02
 8.643215895E-01 2.164946496E-02
 8.649832010E-01 2.201890200E-02
 8.693467379E-01 2.445250191E-02
 8.700083494E-01 2.486592531E-02
 8.743718863E-01 2.759814821E-02
 8.750334978E-01 2.800549939E-02
 8.793969750E-01 3.068850935E-02
 8.800585866E-01 3.109902889E-02
 8.844221234E-01 3.381142393E-02
 8.850837350E-01 3.426761553E-02
 8.894472122E-01 3.727259859E-02
 8.901088238E-01 3.771515563E-02
 8.944723606E-01 4.064127803E-02
 8.951339722E-01 4.111374170E-02
 8.994975090E-01 4.422391951E-02
 9.001591206E-01 4.472793266E-02
 9.045225978E-01 4.806073010E-02
 9.051842093E-01 4.856489226E-02
 9.095477462E-01 5.188534409E-02
 9.102093577E-01 5.245462433E-02
 9.145728350E-01 5.621264130E-02
 9.152344465E-01 5.680310354E-02
 9.195979834E-01 6.070046499E-02
 9.202595949E-01 6.128455698E-02
 9.246231318E-01 6.513368338E-02
 9.252847433E-01 6.580429524E-02
 9.296482205E-01 7.023251802E-02
 9.303098321E-01 7.092715055E-02
 9.346733689E-01 7.551138103E-02
 9.353349805E-01 7.623253763E-02
 9.396985173E-01 8.099198341E-02
 9.403601289E-01 8.176247030E-02
 9.447236061E-01 8.684259653E-02
 9.453852177E-01 8.767314255E-02
 9.497487545E-01 9.315741807E-02
 9.504103661E-01 9.404594451E-02
 9.547738433E-01 9.990710020E-02
 9.554354548E-01 1.008688509E-01
 9.597989917E-01 1.072163060E-01
 9.604606032E-01 1.082684100E-01
 9.648241401E-01 1.152069047E-01
 9.654857516E-01 1.163508296E-01
 9.698492289E-01 1.238986030E-01
 9.705108404E-01 1.251788884E-01
 9.748743773E-01 1.336295605E-01
 9.755359888E-01 1.350472271E-01
 9.798995256E-01 1.443969011E-01
 9.805611372E-01 1.460265964E-01
 9.849246144E-01 1.567802727E-01
 9.855862260E-01 1.587285101E-01
 9.899497628E-01 1.715743244E-01
 9.906113744E-01 1.740670055E-01
 9.949748516E-01 1.905297935E-01
 9.956364632E-01 1.932491958E-01
 1.000000000E+00 2.112119198E-01
