TITLE     = "Surface"
VARIABLES = "X"
"cp"
ZONE T="Slice: Y=0.348333"
 STRANDID=2, SOLUTIONTIME=664.516175
 I=797, J=1, K=1, ZONETYPE=Ordered
 DATAPACKING=POINT
 DT=(SINGLE SINGLE )
 1.000000000E+00 2.234618515E-01
 9.992378354E-01 2.228107303E-01
 9.949748516E-01 2.191498131E-01
 9.942127466E-01 2.166623175E-01
 9.899497628E-01 2.027568966E-01
 9.891875982E-01 2.008215338E-01
 9.849246144E-01 1.900008321E-01
 9.841625094E-01 1.883073747E-01
 9.798995256E-01 1.788331121E-01
 9.791373610E-01 1.772642732E-01
 9.748743773E-01 1.684886664E-01
 9.741122127E-01 1.670037806E-01
 9.698492289E-01 1.586946547E-01
 9.690871239E-01 1.573021561E-01
 9.648241401E-01 1.495105922E-01
 9.640619755E-01 1.481693387E-01
 9.597989917E-01 1.406664252E-01
 9.590368271E-01 1.393908262E-01
 9.547738433E-01 1.322524399E-01
 9.540117383E-01 1.310259402E-01
 9.497487545E-01 1.241624728E-01
 9.489865899E-01 1.229657084E-01
 9.447236061E-01 1.162663624E-01
 9.439615011E-01 1.151021793E-01
 9.396985173E-01 1.085895449E-01
 9.389363527E-01 1.074783877E-01
 9.346733689E-01 1.012592390E-01
 9.339112043E-01 1.001620069E-01
 9.296482205E-01 9.402102977E-02
 9.288861156E-01 9.293293208E-02
 9.246231318E-01 8.684122562E-02
 9.238609672E-01 8.581760526E-02
 9.195979834E-01 8.009088784E-02
 9.188358188E-01 7.908055931E-02
 9.145728350E-01 7.342588902E-02
 9.138107300E-01 7.244405150E-02
 9.095477462E-01 6.695003808E-02
 9.087855816E-01 6.601171941E-02
 9.045225978E-01 6.076189503E-02
 9.037604928E-01 5.982661620E-02
 8.994975090E-01 5.458914861E-02
 8.987353444E-01 5.368185416E-02
 8.944723606E-01 4.860623926E-02
 8.937101960E-01 4.772531614E-02
 8.894472122E-01 4.278961569E-02
 8.886851072E-01 4.189758375E-02
 8.844221234E-01 3.690842167E-02
 8.836599588E-01 3.606005386E-02
 8.793969750E-01 3.130772710E-02
 8.786348701E-01 3.046793304E-02
 8.743718863E-01 2.577087283E-02
 8.736097217E-01 2.493387461E-02
 8.693467379E-01 2.024701424E-02
 8.685845733E-01 1.944795623E-02
 8.643215895E-01 1.497638598E-02
 8.635594845E-01 1.418391149E-02
 8.592965007E-01 9.745047428E-03
 8.585343361E-01 8.956031874E-03
 8.542713523E-01 4.543169402E-03
 8.535091877E-01 3.796436824E-03
 8.492462039E-01 -3.882710880E-04
 8.484840989E-01 -1.172482851E-03
 8.442211151E-01 -5.559364334E-03
 8.434589505E-01 -6.322694477E-03
 8.391959667E-01 -1.060012821E-02
 8.384338617E-01 -1.133511961E-02
 8.341708779E-01 -1.544633508E-02
 8.334087133E-01 -1.621201821E-02
 8.291457295E-01 -2.050142363E-02
 8.283835649E-01 -2.120975964E-02
 8.241205812E-01 -2.516911365E-02
 8.233584762E-01 -2.587590367E-02
 8.190954924E-01 -2.983530983E-02
 8.183333278E-01 -3.053353913E-02
 8.140703440E-01 -3.444424644E-02
 8.133082390E-01 -3.510646895E-02
 8.090452552E-01 -3.881716728E-02
 8.082830906E-01 -3.951388225E-02
 8.040201068E-01 -4.341732711E-02
 8.032579422E-01 -4.413110763E-02
 7.989949584E-01 -4.812071845E-02
 7.982328534E-01 -4.880544171E-02
 7.939698696E-01 -5.264060944E-02
 7.932077050E-01 -5.329343677E-02
 7.889447212E-01 -5.694635585E-02
 7.881825566E-01 -5.762201175E-02
 7.839195728E-01 -6.140885130E-02
 7.831574678E-01 -6.207912415E-02
 7.788944840E-01 -6.582549959E-02
 7.781323195E-01 -6.650308520E-02
 7.738693357E-01 -7.030222565E-02
 7.731072307E-01 -7.097192854E-02
 7.688442469E-01 -7.471528649E-02
 7.680820823E-01 -7.532645017E-02
 7.638190985E-01 -7.875348628E-02
 7.630569339E-01 -7.941960543E-02
 7.587939501E-01 -8.314937353E-02
 7.580318451E-01 -8.382385224E-02
 7.537688613E-01 -8.759676665E-02
 7.530066967E-01 -8.824356645E-02
 7.487437129E-01 -9.186753631E-02
 7.479815483E-01 -9.250479937E-02
 7.437185645E-01 -9.607124329E-02
 7.429564595E-01 -9.672860801E-02
 7.386934757E-01 -1.004148424E-01
 7.379313111E-01 -1.010465175E-01
 7.336683273E-01 -1.045770273E-01
 7.329062223E-01 -1.052199751E-01
 7.286432385E-01 -1.088237390E-01
 7.278810740E-01 -1.094499603E-01
 7.236180902E-01 -1.129548103E-01
 7.228559256E-01 -1.135741174E-01
 7.185929418E-01 -1.170422137E-01
 7.178308368E-01 -1.176834926E-01
 7.135678530E-01 -1.212768480E-01
 7.128056884E-01 -1.219349727E-01
 7.085427046E-01 -1.256107092E-01
 7.077805996E-01 -1.262658387E-01
 7.035176158E-01 -1.299438328E-01
 7.027554512E-01 -1.305891424E-01
 6.984924674E-01 -1.341996789E-01
 6.977303028E-01 -1.348350793E-01
 6.934673190E-01 -1.383920908E-01
 6.927052140E-01 -1.390077919E-01
 6.884422302E-01 -1.424585730E-01
 6.876800656E-01 -1.431069225E-01
 6.834170818E-01 -1.467290074E-01
 6.826549172E-01 -1.473556459E-01
 6.783919334E-01 -1.508704126E-01
 6.776298285E-01 -1.515330523E-01
 6.733668447E-01 -1.552407742E-01
 6.726046801E-01 -1.559014171E-01
 6.683416963E-01 -1.595986038E-01
 6.675795913E-01 -1.602436751E-01
 6.633166075E-01 -1.638643593E-01
 6.625544429E-01 -1.645223200E-01
 6.582914591E-01 -1.681969762E-01
 6.575292945E-01 -1.688610464E-01
 6.532663107E-01 -1.725794822E-01
 6.525042057E-01 -1.732074022E-01
 6.482412219E-01 -1.767256409E-01
 6.474790573E-01 -1.773990989E-01
 6.432160735E-01 -1.811643839E-01
 6.424539089E-01 -1.818173528E-01
 6.381909251E-01 -1.854799986E-01
 6.374288201E-01 -1.861377656E-01
 6.331658363E-01 -1.898176074E-01
 6.324036717E-01 -1.904760301E-01
 6.281406879E-01 -1.941611916E-01
 6.273785830E-01 -1.948336065E-01
 6.231155992E-01 -1.986048073E-01
 6.223534346E-01 -1.992844343E-01
 6.180904508E-01 -2.030822933E-01
 6.173282862E-01 -2.037661374E-01
 6.130653024E-01 -2.075947970E-01
 6.123031974E-01 -2.082847506E-01
 6.080402136E-01 -2.121483386E-01
 6.072780490E-01 -2.128221244E-01
 6.030150652E-01 -2.165877819E-01
 6.022529602E-01 -2.172614485E-01
 5.979899764E-01 -2.210411578E-01
 5.972278118E-01 -2.217180282E-01
 5.929648280E-01 -2.255079895E-01
 5.922026634E-01 -2.262271345E-01
 5.879396796E-01 -2.302448004E-01
 5.871775746E-01 -2.309535444E-01
 5.829145908E-01 -2.349276394E-01
 5.821524262E-01 -2.356250584E-01
 5.778894424E-01 -2.395289391E-01
 5.771272779E-01 -2.402403504E-01
 5.728642941E-01 -2.442173064E-01
 5.721021891E-01 -2.449227422E-01
 5.678392053E-01 -2.488777339E-01
 5.670770407E-01 -2.495935112E-01
 5.628140569E-01 -2.536067367E-01
 5.620519519E-01 -2.543657422E-01
 5.577889681E-01 -2.586054206E-01
 5.570268035E-01 -2.593256533E-01
 5.527638197E-01 -2.633620203E-01
 5.520016551E-01 -2.640770376E-01
 5.477386713E-01 -2.680886984E-01
 5.469765663E-01 -2.688258886E-01
 5.427135825E-01 -2.729411721E-01
 5.419514179E-01 -2.736991942E-01
 5.376884341E-01 -2.779431641E-01
 5.369263291E-01 -2.787054479E-01
 5.326633453E-01 -2.829803824E-01
 5.319011807E-01 -2.837509215E-01
 5.276381969E-01 -2.880618274E-01
 5.268760324E-01 -2.888232172E-01
 5.226130486E-01 -2.930786014E-01
 5.218509436E-01 -2.938574255E-01
 5.175879598E-01 -2.982222438E-01
 5.168257952E-01 -2.989995480E-01
 5.125628114E-01 -3.033592105E-01
 5.118006468E-01 -3.041127026E-01
 5.075376630E-01 -3.083184063E-01
 5.067755580E-01 -3.091316223E-01
 5.025125742E-01 -3.136845231E-01
 5.017504096E-01 -3.145055771E-01
 4.974874258E-01 -3.191064000E-01
 4.967252910E-01 -3.199288249E-01
 4.924623072E-01 -3.245356381E-01
 4.917001724E-01 -3.253700733E-01
 4.874371886E-01 -3.300319612E-01
 4.866750538E-01 -3.308579028E-01
 4.824120700E-01 -3.354806006E-01
 4.816499352E-01 -3.362869918E-01
 4.773869216E-01 -3.408093750E-01
 4.766247869E-01 -3.416663110E-01
 4.723618031E-01 -3.464660645E-01
 4.715996683E-01 -3.472863436E-01
 4.673366845E-01 -3.518673182E-01
 4.665745497E-01 -3.527209461E-01
 4.623115659E-01 -3.574990332E-01
 4.615494311E-01 -3.583821654E-01
 4.572864175E-01 -3.633299470E-01
 4.565242827E-01 -3.642036915E-01
 4.522612989E-01 -3.691002727E-01
 4.514991641E-01 -3.700535595E-01
 4.472361803E-01 -3.753829300E-01
 4.464740455E-01 -3.762535155E-01
 4.422110617E-01 -3.811197579E-01
 4.414489269E-01 -3.820505738E-01
 4.371859431E-01 -3.872624934E-01
 4.364238083E-01 -3.881728649E-01
 4.321607947E-01 -3.932770193E-01
 4.313986599E-01 -3.942013085E-01
 4.271356761E-01 -3.993762136E-01
 4.263735414E-01 -4.003390670E-01
 4.221105576E-01 -4.057230055E-01
 4.213484228E-01 -4.066464007E-01
 4.170854390E-01 -4.118052125E-01
 4.163233042E-01 -4.127818942E-01
 4.120602906E-01 -4.182519913E-01
 4.112981558E-01 -4.192637205E-01
 4.070351720E-01 -4.249313176E-01
 4.062730372E-01 -4.259204566E-01
 4.020100534E-01 -4.314621091E-01
 4.012479186E-01 -4.324354529E-01
 3.969849348E-01 -4.378814995E-01
 3.962228000E-01 -4.389285445E-01
 3.919597864E-01 -4.447848201E-01
 3.911976516E-01 -4.457513988E-01
 3.869346678E-01 -4.511540234E-01
 3.861725330E-01 -4.521262944E-01
 3.819095492E-01 -4.575721920E-01
 3.811474144E-01 -4.587000906E-01
 3.768844306E-01 -4.650098681E-01
 3.761222959E-01 -4.660985172E-01
 3.718592823E-01 -4.721977711E-01
 3.710971475E-01 -4.732215703E-01
 3.668341637E-01 -4.789586961E-01
 3.660720289E-01 -4.799595475E-01
 3.618090451E-01 -4.855616987E-01
 3.610469103E-01 -4.867737889E-01
 3.567839265E-01 -4.935526848E-01
 3.560217917E-01 -4.947135746E-01
 3.517588079E-01 -5.012064576E-01
 3.509966731E-01 -5.023757219E-01
 3.467336595E-01 -5.089103580E-01
 3.459715247E-01 -5.100714564E-01
 3.417085409E-01 -5.165719986E-01
 3.409464061E-01 -5.176215172E-01
 3.366834223E-01 -5.234980583E-01
 3.359212875E-01 -5.245770812E-01
 3.316583037E-01 -5.306162834E-01
 3.308961689E-01 -5.319020152E-01
 3.266331553E-01 -5.390925407E-01
 3.258710206E-01 -5.403477550E-01
 3.216080368E-01 -5.473734736E-01
 3.208459020E-01 -5.486139059E-01
 3.165829182E-01 -5.555568933E-01
 3.158207834E-01 -5.568064451E-01
 3.115577996E-01 -5.638006330E-01
 3.107956648E-01 -5.650760531E-01
 3.065326512E-01 -5.722146034E-01
 3.057705164E-01 -5.734698772E-01
 3.015075326E-01 -5.804957747E-01
 3.007453978E-01 -5.817364454E-01
 2.964824140E-01 -5.886803269E-01
 2.957202792E-01 -5.899073482E-01
 2.914572954E-01 -5.967749357E-01
 2.906951606E-01 -5.980470181E-01
 2.864321470E-01 -6.051658988E-01
 2.856700122E-01 -6.064951420E-01
 2.814070284E-01 -6.139330268E-01
 2.806448936E-01 -6.152198315E-01
 2.763819098E-01 -6.224200726E-01
 2.756197751E-01 -6.236508489E-01
 2.713567913E-01 -6.305376887E-01
 2.705946565E-01 -6.313131452E-01
 2.663316727E-01 -6.356541514E-01
 2.655695379E-01 -6.374223828E-01
 2.613065243E-01 -6.473084688E-01
 2.605443895E-01 -6.499872804E-01
 2.562814057E-01 -6.649805903E-01
 2.555192709E-01 -6.661321521E-01
 2.512562871E-01 -6.725839972E-01
 2.504941523E-01 -6.738367081E-01
 2.462311536E-01 -6.808615923E-01
 2.454690188E-01 -6.818131804E-01
 2.412060350E-01 -6.871472597E-01
 2.404439002E-01 -6.889550090E-01
 2.361809015E-01 -6.990693212E-01
 2.354187667E-01 -7.016355395E-01
 2.311557829E-01 -7.159875631E-01
 2.303936481E-01 -7.171444297E-01
 2.261306494E-01 -7.236121297E-01
 2.253685147E-01 -7.254486084E-01
 2.211055309E-01 -7.357161045E-01
 2.203433961E-01 -7.378489971E-01
 2.160803974E-01 -7.497820258E-01
 2.153182626E-01 -7.507293224E-01
 2.110552788E-01 -7.560552955E-01
 2.102931440E-01 -7.578707933E-01
 2.060301453E-01 -7.680373192E-01
 2.052680105E-01 -7.704600692E-01
 2.010050267E-01 -7.840039134E-01
 2.002428919E-01 -7.859258056E-01
 1.959798932E-01 -7.966701984E-01
 1.952177584E-01 -7.987150550E-01
 1.909547746E-01 -8.101578951E-01
 1.901926398E-01 -8.120884299E-01
 1.859296411E-01 -8.229101300E-01
 1.851675063E-01 -8.248866200E-01
 1.809045225E-01 -8.359410167E-01
 1.801423877E-01 -8.380433321E-01
 1.758794039E-01 -8.497921824E-01
 1.751172692E-01 -8.524930477E-01
 1.708542705E-01 -8.676212430E-01
 1.700921357E-01 -8.693237901E-01
 1.658291519E-01 -8.788578510E-01
 1.650670171E-01 -8.808156848E-01
 1.608040184E-01 -8.917551637E-01
 1.600418836E-01 -8.951418400E-01
 1.557788998E-01 -9.141051769E-01
 1.550167650E-01 -9.166824222E-01
 1.507537663E-01 -9.310991764E-01
 1.499916315E-01 -9.331344962E-01
 1.457286477E-01 -9.445264339E-01
 1.449665129E-01 -9.473044872E-01
 1.407035142E-01 -9.628642797E-01
 1.399413794E-01 -9.658991694E-01
 1.356783956E-01 -9.828648567E-01
 1.349162608E-01 -9.858404994E-01
 1.306532621E-01 -1.002503633E+00
 1.298911273E-01 -1.005286574E+00
 1.256281435E-01 -1.020857096E+00
 1.248660088E-01 -1.023705482E+00
 1.206030175E-01 -1.039653540E+00
 1.198408827E-01 -1.043360472E+00
 1.155778915E-01 -1.064098477E+00
 1.148157567E-01 -1.067936182E+00
 1.105527654E-01 -1.089411259E+00
 1.097906306E-01 -1.092992663E+00
 1.055276394E-01 -1.113032341E+00
 1.047655046E-01 -1.116855145E+00
 1.005025133E-01 -1.138258934E+00
 9.974037856E-02 -1.142063737E+00
 9.547738731E-02 -1.163360000E+00
 9.471525252E-02 -1.167045236E+00
 9.045226127E-02 -1.187670469E+00
 8.969012648E-02 -1.192929029E+00
 8.542713523E-02 -1.222357631E+00
 8.466500044E-02 -1.226976275E+00
 8.040200919E-02 -1.252830863E+00
 7.963987440E-02 -1.257518530E+00
 7.537688315E-02 -1.283760309E+00
 7.461474836E-02 -1.289811611E+00
 7.035175711E-02 -1.323680043E+00
 6.958962232E-02 -1.330051422E+00
 6.532663107E-02 -1.365711093E+00
 6.456449628E-02 -1.372075200E+00
 6.030150875E-02 -1.407698154E+00
 5.953937396E-02 -1.414782166E+00
 5.527638271E-02 -1.454435468E+00
 5.451424792E-02 -1.462198019E+00
 5.025125667E-02 -1.505650163E+00
 4.948912188E-02 -1.514685392E+00
 4.522613063E-02 -1.565263391E+00
 4.446399584E-02 -1.575047016E+00
 4.020100459E-02 -1.629819393E+00
 3.943886980E-02 -1.639368415E+00
 3.517587855E-02 -1.692834139E+00
 3.441374376E-02 -1.704069257E+00
 3.015075438E-02 -1.766977549E+00
 2.938861959E-02 -1.781684160E+00
 2.512562834E-02 -1.864030838E+00
 2.436349355E-02 -1.877923846E+00
 2.010050230E-02 -1.955738425E+00
 1.933836751E-02 -1.968856931E+00
 1.507537719E-02 -2.042357206E+00
 1.431324147E-02 -2.055609941E+00
 1.005025115E-02 -2.129936934E+00
 9.288115427E-03 -2.053979397E+00
 5.025125574E-03 -1.629121423E+00
 4.262989853E-03 -1.408054590E+00
 0.000000000E+00 -1.709301472E-01
 4.262989853E-03 7.063068151E-01
 5.025125574E-03 8.629997373E-01
 9.288115427E-03 9.748181105E-01
 1.005025115E-02 9.947462082E-01
 1.431324147E-02 9.441958666E-01
 1.507537719E-02 9.351440668E-01
 1.933836751E-02 8.650748134E-01
 2.010050230E-02 8.525362015E-01
 2.436349355E-02 7.870239019E-01
 2.512562834E-02 7.753055692E-01
 2.938861959E-02 7.189888358E-01
 3.015075438E-02 7.089175582E-01
 3.441374376E-02 6.575406790E-01
 3.517587855E-02 6.483535171E-01
 3.943886980E-02 6.022040248E-01
 4.020100459E-02 5.939520001E-01
 4.446399584E-02 5.540066361E-01
 4.522613063E-02 5.468647480E-01
 4.948912188E-02 5.114689469E-01
 5.025125667E-02 5.051406026E-01
 5.451424792E-02 4.729278088E-01
 5.527638271E-02 4.671683609E-01
 5.953937396E-02 4.381258786E-01
 6.030150875E-02 4.329337478E-01
 6.456449628E-02 4.072326720E-01
 6.532663107E-02 4.026378691E-01
 6.958962232E-02 3.798877001E-01
 7.035175711E-02 3.758204877E-01
 7.461474836E-02 3.543396890E-01
 7.537688315E-02 3.504996896E-01
 7.963987440E-02 3.295314610E-01
 8.040200919E-02 3.257840276E-01
 8.466500044E-02 3.067892492E-01
 8.542713523E-02 3.033942282E-01
 8.969012648E-02 2.876984179E-01
 9.045226127E-02 2.848925889E-01
 9.471525252E-02 2.674920857E-01
 9.547738731E-02 2.643814385E-01
 9.974037856E-02 2.490779012E-01
 1.005025133E-01 2.463427782E-01
 1.047655046E-01 2.324890643E-01
 1.055276394E-01 2.300120592E-01
 1.097906306E-01 2.172317207E-01
 1.105527654E-01 2.149469554E-01
 1.148157567E-01 2.037578076E-01
 1.155778915E-01 2.017594427E-01
 1.198408827E-01 1.916287839E-01
 1.206030175E-01 1.898165792E-01
 1.248660088E-01 1.783129126E-01
 1.256281435E-01 1.762586087E-01
 1.298911273E-01 1.654317379E-01
 1.306532621E-01 1.634937078E-01
 1.349162608E-01 1.540921628E-01
 1.356783956E-01 1.524128020E-01
 1.399413794E-01 1.440453529E-01
 1.407035142E-01 1.425491273E-01
 1.449665129E-01 1.345760077E-01
 1.457286477E-01 1.331520826E-01
 1.499916315E-01 1.234498918E-01
 1.507537663E-01 1.217157915E-01
 1.550167650E-01 1.139918193E-01
 1.557788998E-01 1.126093119E-01
 1.600418836E-01 1.091917679E-01
 1.608040184E-01 1.085844338E-01
 1.650670171E-01 1.004277468E-01
 1.658291519E-01 9.896835685E-02
 1.700921357E-01 9.022646397E-02
 1.708542705E-01 8.866403252E-02
 1.751172692E-01 8.469139040E-02
 1.758794039E-01 8.398377150E-02
 1.801423877E-01 7.752985507E-02
 1.809045225E-01 7.637472451E-02
 1.851675063E-01 7.048881054E-02
 1.859296411E-01 6.943256408E-02
 1.901926398E-01 6.427789479E-02
 1.909547746E-01 6.335823238E-02
 1.952177584E-01 5.842661858E-02
 1.959798932E-01 5.754963681E-02
 2.002428919E-01 5.238910019E-02
 2.010050267E-01 5.146510154E-02
 2.052680105E-01 5.040154979E-02
 2.060301453E-01 5.021005124E-02
 2.102931440E-01 4.569258541E-02
 2.110552788E-01 4.488790408E-02
 2.153182626E-01 3.647189587E-02
 2.160803974E-01 3.496938571E-02
 2.203433961E-01 3.306371719E-02
 2.211055309E-01 3.272369131E-02
 2.253685147E-01 2.898301743E-02
 2.261306494E-01 2.831299230E-02
 2.303936481E-01 2.200955339E-02
 2.311557829E-01 2.088124305E-02
 2.354187667E-01 2.353064530E-02
 2.361809015E-01 2.400185540E-02
 2.404439002E-01 2.153965272E-02
 2.412060350E-01 2.110059187E-02
 2.454690188E-01 1.425060630E-02
 2.462311536E-01 1.303012483E-02
 2.504941523E-01 8.476562798E-03
 2.512562871E-01 7.665880956E-03
 2.555192709E-01 2.905349713E-03
 2.562814057E-01 2.052341821E-03
 2.605443895E-01 7.769896649E-03
 2.613065243E-01 8.792327717E-03
 2.655695379E-01 7.697110064E-03
 2.663316727E-01 7.502710447E-03
 2.705946565E-01 2.037535160E-04
 2.713567913E-01 -1.101456117E-03
 2.756197751E-01 -4.608690273E-03
 2.763819098E-01 -5.235860124E-03
 2.806448936E-01 -7.997771725E-03
 2.814070284E-01 -8.491543122E-03
 2.856700122E-01 -1.065233443E-02
 2.864321470E-01 -1.103866193E-02
 2.906951606E-01 -1.336122025E-02
 2.914572954E-01 -1.377610303E-02
 2.957202792E-01 -1.622996666E-02
 2.964824140E-01 -1.666821353E-02
 3.007453978E-01 -1.877637394E-02
 3.015075326E-01 -1.915290579E-02
 3.057705164E-01 -2.096053772E-02
 3.065326512E-01 -2.128327079E-02
 3.107956648E-01 -2.282305621E-02
 3.115577996E-01 -2.309773676E-02
 3.158207834E-01 -2.452097833E-02
 3.165829182E-01 -2.477495745E-02
 3.208459020E-01 -2.601066604E-02
 3.216080368E-01 -2.623105422E-02
 3.258710206E-01 -2.727377973E-02
 3.266331553E-01 -2.745969780E-02
 3.308961689E-01 -2.839010209E-02
 3.316583037E-01 -2.855672687E-02
 3.359212875E-01 -3.075923957E-02
 3.366834223E-01 -3.115080856E-02
 3.409464061E-01 -3.296092153E-02
 3.417085409E-01 -3.328259289E-02
 3.459715247E-01 -3.396528214E-02
 3.467336595E-01 -3.408883139E-02
 3.509966731E-01 -3.456950188E-02
 3.517588079E-01 -3.465759009E-02
 3.560217917E-01 -3.514400125E-02
 3.567839265E-01 -3.523252532E-02
 3.610469103E-01 -3.540934622E-02
 3.618090451E-01 -3.543993458E-02
 3.660720289E-01 -3.722710907E-02
 3.668341637E-01 -3.754641488E-02
 3.710971475E-01 -3.842609376E-02
 3.718592823E-01 -3.858216479E-02
 3.761222959E-01 -3.874206170E-02
 3.768844306E-01 -3.876930103E-02
 3.811474144E-01 -3.904787078E-02
 3.819095492E-01 -3.909770027E-02
 3.861725330E-01 -4.061455652E-02
 3.869346678E-01 -4.088366777E-02
 3.911976516E-01 -4.153615609E-02
 3.919597864E-01 -4.165310785E-02
 3.962228000E-01 -4.190899432E-02
 3.969849348E-01 -4.195756093E-02
 4.012479186E-01 -4.305639490E-02
 4.020100534E-01 -4.325268790E-02
 4.062730372E-01 -4.324559122E-02
 4.070351720E-01 -4.324252531E-02
 4.112981558E-01 -4.311645776E-02
 4.120602906E-01 -4.309304431E-02
 4.163233042E-01 -4.378486425E-02
 4.170854390E-01 -4.390653595E-02
 4.213484228E-01 -4.409606382E-02
 4.221105576E-01 -4.413002729E-02
 4.263735414E-01 -4.404989257E-02
 4.271356761E-01 -4.403803125E-02
 4.313986599E-01 -4.447808489E-02
 4.321607947E-01 -4.455627128E-02
 4.364238083E-01 -4.452071339E-02
 4.371859431E-01 -4.451326653E-02
 4.414489269E-01 -4.472643882E-02
 4.422110617E-01 -4.476368427E-02
 4.464740455E-01 -4.514891282E-02
 4.472361803E-01 -4.521710426E-02
 4.514991641E-01 -4.467595741E-02
 4.522612989E-01 -4.458047450E-02
 4.565242827E-01 -4.474881291E-02
 4.572864175E-01 -4.477899894E-02
 4.615494311E-01 -4.448635876E-02
 4.623115659E-01 -4.443351552E-02
 4.665745497E-01 -4.472693056E-02
 4.673366845E-01 -4.477835819E-02
 4.715996683E-01 -4.476028308E-02
 4.723618031E-01 -4.475758970E-02
 4.766247869E-01 -4.463722557E-02
 4.773869216E-01 -4.461610690E-02
 4.816499352E-01 -4.471264407E-02
 4.824120700E-01 -4.472909495E-02
 4.866750538E-01 -4.482484236E-02
 4.874371886E-01 -4.484084621E-02
 4.917001724E-01 -4.427523166E-02
 4.924623072E-01 -4.417521134E-02
 4.967252910E-01 -4.406910017E-02
 4.974874258E-01 -4.405093566E-02
 5.017504096E-01 -4.354613274E-02
 5.025125742E-01 -4.345462844E-02
 5.067755580E-01 -4.322352633E-02
 5.075376630E-01 -4.318143055E-02
 5.118006468E-01 -4.333666712E-02
 5.125628114E-01 -4.336582124E-02
 5.168257952E-01 -4.299072176E-02
 5.175879598E-01 -4.292287305E-02
 5.218509436E-01 -4.262644053E-02
 5.226130486E-01 -4.257243872E-02
 5.268760324E-01 -4.232496768E-02
 5.276381969E-01 -4.228061438E-02
 5.319011807E-01 -4.176173732E-02
 5.326633453E-01 -4.166970402E-02
 5.369263291E-01 -4.127315059E-02
 5.376884341E-01 -4.120179638E-02
 5.419514179E-01 -4.087622836E-02
 5.427135825E-01 -4.081698507E-02
 5.469765663E-01 -4.040617868E-02
 5.477386713E-01 -4.033356905E-02
 5.520016551E-01 -3.997196630E-02
 5.527638197E-01 -3.990741074E-02
 5.570268035E-01 -3.949624300E-02
 5.577889681E-01 -3.942145035E-02
 5.620519519E-01 -3.871133924E-02
 5.628140569E-01 -3.858603537E-02
 5.670770407E-01 -3.812726587E-02
 5.678392053E-01 -3.804502636E-02
 5.721021891E-01 -3.778418154E-02
 5.728642941E-01 -3.773590550E-02
 5.771272779E-01 -3.729273006E-02
 5.778894424E-01 -3.721407056E-02
 5.821524262E-01 -3.652115166E-02
 5.829145908E-01 -3.639789671E-02
 5.871775746E-01 -3.584645689E-02
 5.879396796E-01 -3.574651480E-02
 5.922026634E-01 -3.505159914E-02
 5.929648280E-01 -3.492760658E-02
 5.972278118E-01 -3.435102850E-02
 5.979899764E-01 -3.424807638E-02
 6.022529602E-01 -3.389650211E-02
 6.030150652E-01 -3.383292258E-02
 6.072780490E-01 -3.345414624E-02
 6.080402136E-01 -3.338740766E-02
 6.123031974E-01 -3.238034993E-02
 6.130653024E-01 -3.220035136E-02
 6.173282862E-01 -3.145807981E-02
 6.180904508E-01 -3.132448718E-02
 6.223534346E-01 -3.067263961E-02
 6.231155992E-01 -3.055642545E-02
 6.273785830E-01 -2.990368381E-02
 6.281406879E-01 -2.978682145E-02
 6.324036717E-01 -2.907537669E-02
 6.331658363E-01 -2.894788235E-02
 6.374288201E-01 -2.813361213E-02
 6.381909251E-01 -2.798873559E-02
 6.424539089E-01 -2.743809298E-02
 6.432160735E-01 -2.733866312E-02
 6.474790573E-01 -2.642751113E-02
 6.482412219E-01 -2.626572922E-02
 6.525042057E-01 -2.571179532E-02
 6.532663107E-01 -2.561300993E-02
 6.575292945E-01 -2.464572527E-02
 6.582914591E-01 -2.447117306E-02
 6.625544429E-01 -2.368496172E-02
 6.633166075E-01 -2.354492806E-02
 6.675795913E-01 -2.271351777E-02
 6.683416963E-01 -2.256449126E-02
 6.726046801E-01 -2.155625634E-02
 6.733668447E-01 -2.137600258E-02
 6.776298285E-01 -2.033513598E-02
 6.783919334E-01 -2.014982514E-02
 6.826549172E-01 -1.939972863E-02
 6.834170818E-01 -1.926434413E-02
 6.876800656E-01 -1.835444383E-02
 6.884422302E-01 -1.819204539E-02
 6.927052140E-01 -1.738868095E-02
 6.934673190E-01 -1.724484563E-02
 6.977303028E-01 -1.630708948E-02
 6.984924674E-01 -1.613941602E-02
 7.027554512E-01 -1.503469143E-02
 7.035176158E-01 -1.483711042E-02
 7.077805996E-01 -1.376939751E-02
 7.085427046E-01 -1.357772388E-02
 7.128056884E-01 -1.264823042E-02
 7.135678530E-01 -1.248205546E-02
 7.178308368E-01 -1.138970349E-02
 7.185929418E-01 -1.119477022E-02
 7.228559256E-01 -1.032064110E-02
 7.236180902E-01 -1.016447786E-02
 7.278810740E-01 -9.172202088E-03
 7.286432385E-01 -8.995474316E-03
 7.329062223E-01 -7.798010018E-03
 7.336683273E-01 -7.582863327E-03
 7.379313111E-01 -6.500103977E-03
 7.386934757E-01 -6.307261530E-03
 7.429564595E-01 -5.119448993E-03
 7.437185645E-01 -4.906223621E-03
 7.479815483E-01 -3.664529650E-03
 7.487437129E-01 -3.442706307E-03
 7.530066967E-01 -2.174557652E-03
 7.537688613E-01 -1.947939629E-03
 7.580318451E-01 -5.582335289E-04
 7.587939501E-01 -3.095277934E-04
 7.630569339E-01 1.167642302E-03
 7.638190985E-01 1.431293087E-03
 7.680820823E-01 2.321717329E-03
 7.688442469E-01 2.482052427E-03
 7.731072307E-01 3.882497549E-03
 7.738693357E-01 4.131921567E-03
 7.781323195E-01 5.563689396E-03
 7.788944840E-01 5.820659921E-03
 7.831574678E-01 7.161804475E-03
 7.839195728E-01 7.400988135E-03
 7.881825566E-01 8.838034235E-03
 7.889447212E-01 9.095447138E-03
 7.932077050E-01 1.052972861E-02
 7.939698696E-01 1.078566909E-02
 7.982328534E-01 1.240325812E-02
 7.989949584E-01 1.269263215E-02
 8.032579422E-01 1.438739151E-02
 8.040201068E-01 1.469055098E-02
 8.082830906E-01 1.623244397E-02
 8.090452552E-01 1.650835387E-02
 8.133082390E-01 1.793194562E-02
 8.140703440E-01 1.818669587E-02
 8.183333278E-01 1.984839141E-02
 8.190954924E-01 2.014528401E-02
 8.233584762E-01 2.185799368E-02
 8.241205812E-01 2.216527984E-02
 8.283835649E-01 2.385959029E-02
 8.291457295E-01 2.416214347E-02
 8.334087133E-01 2.631552704E-02
 8.341708779E-01 2.670070902E-02
 8.384338617E-01 2.859197557E-02
 8.391959667E-01 2.892996743E-02
 8.434589505E-01 3.102206811E-02
 8.442211151E-01 3.139628097E-02
 8.484840989E-01 3.358898312E-02
 8.492462039E-01 3.398050740E-02
 8.535091877E-01 3.590687364E-02
 8.542713523E-01 3.625218570E-02
 8.585343361E-01 3.846310452E-02
 8.592965007E-01 3.885783628E-02
 8.635594845E-01 4.105777666E-02
 8.643215895E-01 4.145176336E-02
 8.685845733E-01 4.376053065E-02
 8.693467379E-01 4.417316616E-02
 8.736097217E-01 4.675885662E-02
 8.743718863E-01 4.722185433E-02
 8.786348701E-01 4.976492748E-02
 8.793969750E-01 5.021952838E-02
 8.836599588E-01 5.278246850E-02
 8.844221234E-01 5.324099958E-02
 8.886851072E-01 5.609002709E-02
 8.894472122E-01 5.659928918E-02
 8.937101960E-01 5.935827643E-02
 8.944723606E-01 5.985181779E-02
 8.987353444E-01 6.279309094E-02
 8.994975090E-01 6.331850588E-02
 9.037604928E-01 6.645970047E-02
 9.045225978E-01 6.702215225E-02
 9.087855816E-01 7.015566528E-02
 9.095477462E-01 7.071554661E-02
 9.138107300E-01 7.425628603E-02
 9.145728350E-01 7.488996536E-02
 9.188358188E-01 7.856151462E-02
 9.195979834E-01 7.921833545E-02
 9.238609672E-01 8.284275979E-02
 9.246231318E-01 8.349056542E-02
 9.288861156E-01 8.766449988E-02
 9.296482205E-01 8.841119707E-02
 9.339112043E-01 9.272245318E-02
 9.346733689E-01 9.349370003E-02
 9.389363527E-01 9.796921909E-02
 9.396985173E-01 9.876964986E-02
 9.439615011E-01 1.035466641E-01
 9.447236061E-01 1.044008806E-01
 9.489865899E-01 1.095495895E-01
 9.497487545E-01 1.104706675E-01
 9.540117383E-01 1.159717292E-01
 9.547738433E-01 1.169554889E-01
 9.590368271E-01 1.229082271E-01
 9.597989917E-01 1.239731237E-01
 9.640619755E-01 1.304797530E-01
 9.648241401E-01 1.316433251E-01
 9.690871239E-01 1.387072951E-01
 9.698492289E-01 1.399707794E-01
 9.741122127E-01 1.478770226E-01
 9.748743773E-01 1.492914110E-01
 9.791373610E-01 1.580293477E-01
 9.798995256E-01 1.595918983E-01
 9.841625094E-01 1.696268171E-01
 9.849246144E-01 1.714218110E-01
 9.891875982E-01 1.834033877E-01
 9.899497628E-01 1.855460852E-01
 9.942127466E-01 2.008367032E-01
 9.949748516E-01 2.035722136E-01
 9.992378354E-01 2.204408497E-01
 1.000000000E+00 2.234618515E-01
